 <VTKFile type="UnstructuredGrid"  version="0.1"   >
 <UnstructuredGrid>
 <Piece  NumberOfPoints="           200 "  NumberOfCells="          128 ">
 <Points>
 <DataArray  type="Float64" NumberOfComponents="3"  format="ascii" >
  -10.000000000000000        0.0000000000000000        0.0000000000000000     
  -7.5000000000000000        0.0000000000000000        0.0000000000000000     
  -5.0000000000000000        0.0000000000000000        0.0000000000000000     
  -2.4999999999999996        0.0000000000000000        0.0000000000000000     
   0.0000000000000000        0.0000000000000000        0.0000000000000000     
  -10.000000000000000       0.15625000000000000        0.0000000000000000     
  -7.5000000000000000       0.15625000000000000        0.0000000000000000     
  -5.0000000000000000       0.15624999999999997        0.0000000000000000     
  -2.5000000000000000       0.15625000000000003        0.0000000000000000     
   0.0000000000000000       0.15625000000000000        0.0000000000000000     
  -10.000000000000000       0.31250000000000006        0.0000000000000000     
  -7.5000000000000000       0.31250000000000000        0.0000000000000000     
  -5.0000000000000000       0.31250000000000006        0.0000000000000000     
  -2.4999999999999996       0.31249999999999994        0.0000000000000000     
   0.0000000000000000       0.31250000000000006        0.0000000000000000     
  -10.000000000000000       0.46875000000000000        0.0000000000000000     
  -7.5000000000000000       0.46875000000000000        0.0000000000000000     
  -5.0000000000000000       0.46875000000000000        0.0000000000000000     
  -2.4999999999999996       0.46875000000000000        0.0000000000000000     
   0.0000000000000000       0.46875000000000000        0.0000000000000000     
  -10.000000000000000       0.62500000000000011        0.0000000000000000     
  -7.5000000000000000       0.62500000000000000        0.0000000000000000     
  -5.0000000000000009       0.62500000000000000        0.0000000000000000     
  -2.4999999999999996       0.62500000000000000        0.0000000000000000     
   0.0000000000000000       0.62500000000000011        0.0000000000000000     
  -10.000000000000000       0.62500000000000011        0.0000000000000000     
  -7.5000000000000000       0.62500000000000000        0.0000000000000000     
  -5.0000000000000009       0.62500000000000000        0.0000000000000000     
  -2.4999999999999996       0.62500000000000000        0.0000000000000000     
   0.0000000000000000       0.62500000000000011        0.0000000000000000     
  -9.9999999999999982       0.78124999999999989        0.0000000000000000     
  -7.5000000000000000       0.78125000000000011        0.0000000000000000     
  -5.0000000000000009       0.78125000000000011        0.0000000000000000     
  -2.4999999999999996       0.78125000000000000        0.0000000000000000     
   0.0000000000000000       0.78124999999999989        0.0000000000000000     
  -10.000000000000000       0.93749999999999989        0.0000000000000000     
  -7.4999999999999991       0.93749999999999989        0.0000000000000000     
  -5.0000000000000000       0.93750000000000000        0.0000000000000000     
  -2.5000000000000000       0.93749999999999989        0.0000000000000000     
   0.0000000000000000       0.93749999999999989        0.0000000000000000     
  -10.000000000000000        1.0937499999999998        0.0000000000000000     
  -7.5000000000000000        1.0937500000000000        0.0000000000000000     
  -5.0000000000000009        1.0937500000000004        0.0000000000000000     
  -2.5000000000000000        1.0937500000000000        0.0000000000000000     
   0.0000000000000000        1.0937499999999998        0.0000000000000000     
  -10.000000000000004        1.2500000000000002        0.0000000000000000     
  -7.5000000000000000        1.2500000000000000        0.0000000000000000     
  -4.9999999999999991        1.2499999999999998        0.0000000000000000     
  -2.5000000000000000        1.2500000000000002        0.0000000000000000     
   0.0000000000000000        1.2500000000000002        0.0000000000000000     
  -10.000000000000004        1.2500000000000002        0.0000000000000000     
  -7.5000000000000000        1.2500000000000000        0.0000000000000000     
  -4.9999999999999991        1.2499999999999998        0.0000000000000000     
  -2.5000000000000000        1.2500000000000002        0.0000000000000000     
   0.0000000000000000        1.2500000000000002        0.0000000000000000     
  -9.9999999999999982        1.4062499999999998        0.0000000000000000     
  -7.4999999999999991        1.4062500000000000        0.0000000000000000     
  -5.0000000000000009        1.4062500000000002        0.0000000000000000     
  -2.5000000000000000        1.4062500000000000        0.0000000000000000     
   0.0000000000000000        1.4062499999999998        0.0000000000000000     
  -10.000000000000002        1.5625000000000002        0.0000000000000000     
  -7.4999999999999982        1.5624999999999998        0.0000000000000000     
  -5.0000000000000009        1.5625000000000004        0.0000000000000000     
  -2.5000000000000004        1.5625000000000000        0.0000000000000000     
   0.0000000000000000        1.5625000000000002        0.0000000000000000     
  -10.000000000000002        1.7187500000000002        0.0000000000000000     
  -7.5000000000000000        1.7187500000000000        0.0000000000000000     
  -4.9999999999999982        1.7187500000000000        0.0000000000000000     
  -2.4999999999999996        1.7187500000000002        0.0000000000000000     
   0.0000000000000000        1.7187500000000002        0.0000000000000000     
  -10.000000000000004        1.8750000000000004        0.0000000000000000     
  -7.5000000000000000        1.8750000000000000        0.0000000000000000     
  -4.9999999999999991        1.8750000000000000        0.0000000000000000     
  -2.5000000000000000        1.8750000000000002        0.0000000000000000     
   0.0000000000000000        1.8750000000000004        0.0000000000000000     
  -10.000000000000004        1.8750000000000004        0.0000000000000000     
  -7.5000000000000000        1.8750000000000000        0.0000000000000000     
  -4.9999999999999991        1.8750000000000000        0.0000000000000000     
  -2.5000000000000000        1.8750000000000002        0.0000000000000000     
   0.0000000000000000        1.8750000000000004        0.0000000000000000     
  -9.9999999999999982        2.0312500000000000        0.0000000000000000     
  -7.4999999999999991        2.0312500000000000        0.0000000000000000     
  -5.0000000000000009        2.0312500000000004        0.0000000000000000     
  -2.5000000000000000        2.0312500000000000        0.0000000000000000     
   0.0000000000000000        2.0312500000000000        0.0000000000000000     
  -10.000000000000002        2.1875000000000004        0.0000000000000000     
  -7.4999999999999982        2.1874999999999996        0.0000000000000000     
  -5.0000000000000009        2.1875000000000004        0.0000000000000000     
  -2.5000000000000004        2.1875000000000004        0.0000000000000000     
   0.0000000000000000        2.1875000000000004        0.0000000000000000     
  -10.000000000000002        2.3437500000000004        0.0000000000000000     
  -7.5000000000000000        2.3437500000000000        0.0000000000000000     
  -4.9999999999999982        2.3437499999999996        0.0000000000000000     
  -2.4999999999999996        2.3437500000000004        0.0000000000000000     
   0.0000000000000000        2.3437500000000004        0.0000000000000000     
  -10.000000000000004        2.5000000000000004        0.0000000000000000     
  -7.5000000000000000        2.5000000000000000        0.0000000000000000     
  -4.9999999999999991        2.5000000000000000        0.0000000000000000     
  -2.5000000000000000        2.5000000000000000        0.0000000000000000     
   0.0000000000000000        2.5000000000000004        0.0000000000000000     
  -10.000000000000004        2.5000000000000004        0.0000000000000000     
  -7.5000000000000000        2.5000000000000000        0.0000000000000000     
  -4.9999999999999991        2.5000000000000000        0.0000000000000000     
  -2.5000000000000000        2.5000000000000000        0.0000000000000000     
   0.0000000000000000        2.5000000000000004        0.0000000000000000     
  -9.9999999999999982        2.6562500000000000        0.0000000000000000     
  -7.4999999999999991        2.6562500000000000        0.0000000000000000     
  -5.0000000000000009        2.6562500000000004        0.0000000000000000     
  -2.5000000000000000        2.6562500000000000        0.0000000000000000     
   0.0000000000000000        2.6562500000000000        0.0000000000000000     
  -10.000000000000002        2.8125000000000004        0.0000000000000000     
  -7.4999999999999982        2.8124999999999996        0.0000000000000000     
  -5.0000000000000009        2.8125000000000004        0.0000000000000000     
  -2.5000000000000004        2.8125000000000000        0.0000000000000000     
   0.0000000000000000        2.8125000000000004        0.0000000000000000     
  -10.000000000000002        2.9687500000000000        0.0000000000000000     
  -7.5000000000000000        2.9687499999999996        0.0000000000000000     
  -4.9999999999999982        2.9687500000000000        0.0000000000000000     
  -2.4999999999999996        2.9687500000000004        0.0000000000000000     
   0.0000000000000000        2.9687500000000000        0.0000000000000000     
  -10.000000000000004        3.1250000000000000        0.0000000000000000     
  -7.5000000000000000        3.1250000000000000        0.0000000000000000     
  -4.9999999999999991        3.1250000000000000        0.0000000000000000     
[...]
 <PointData>
 <DataArray  type="Float64" Name="disp" NumberOfComponents="3" format="ascii">
   0.0000000000000000        0.0000000000000000        0.0000000000000000     
  -8.6573293601766088E-009  -7.5259486131579860E-008   0.0000000000000000     
   3.6329346387476868E-009  -5.4429471027915882E-008   0.0000000000000000     
   5.5053243603307723E-009  -2.5665094002753441E-008   0.0000000000000000     
  -3.4405627831869463E-008  -7.7121494369837903E-008   0.0000000000000000     
   0.0000000000000000        0.0000000000000000        0.0000000000000000     
  -6.9405682508082287E-009  -7.4003889469046705E-008   0.0000000000000000     
   2.4520097181756413E-009  -5.5037753541103603E-008   0.0000000000000000     
   3.7268881129138097E-009  -2.6731324016268929E-008   0.0000000000000000     
  -2.7566778860631519E-008  -7.2714332694640906E-008   0.0000000000000000     
   0.0000000000000000        0.0000000000000000        0.0000000000000000     
  -5.1777112706817006E-009  -7.1943153670804550E-008   0.0000000000000000     
   1.6613030597109788E-009  -5.4359322319418911E-008   0.0000000000000000     
   2.0293639928904291E-009  -2.7456363404483247E-008   0.0000000000000000     
  -2.2561207469430952E-008  -7.1442134384637776E-008   0.0000000000000000     
   0.0000000000000000        0.0000000000000000        0.0000000000000000     
  -3.4776927222152934E-009  -6.9686983223544580E-008   0.0000000000000000     
   1.1463538538706770E-009  -5.3112662464408139E-008   0.0000000000000000     
   4.7229569679990724E-010  -2.7948550508037828E-008   0.0000000000000000     
  -1.8899711224885597E-008  -7.1866160139880835E-008   0.0000000000000000     
   0.0000000000000000        0.0000000000000000        0.0000000000000000     
  -1.9494469078272817E-009  -6.7845082613957991E-008   0.0000000000000000     
   7.9270129117171139E-010  -5.2016259077617666E-008   0.0000000000000000     
  -8.8477307881848221E-010  -2.8316223667574097E-008   0.0000000000000000     
  -1.6093087693613322E-008  -7.2547670660422447E-008   0.0000000000000000     
   0.0000000000000000        0.0000000000000000        0.0000000000000000     
  -1.9494469078272817E-009  -6.7845082613957991E-008   0.0000000000000000     
   7.9270129117171139E-010  -5.2016259077617666E-008   0.0000000000000000     
  -8.8477307881848221E-010  -2.8316223667574097E-008   0.0000000000000000     
  -1.6093087693613322E-008  -7.2547670660422447E-008   0.0000000000000000     
   0.0000000000000000        0.0000000000000000        0.0000000000000000     
  -6.7265565796587140E-010  -6.6872074356978418E-008   0.0000000000000000     
   4.9975584141812652E-010  -5.1617314617575519E-008   0.0000000000000000     
  -2.0111825305967086E-009  -2.8646385033170337E-008   0.0000000000000000     
  -1.3733887802759077E-008  -7.2369949855141957E-008   0.0000000000000000     
   0.0000000000000000        0.0000000000000000        0.0000000000000000     
   3.9000908480099662E-010  -6.6602253080509497E-008   0.0000000000000000     
   2.2241309156223421E-010  -5.1777900970736666E-008   0.0000000000000000     
  -2.9918084278517264E-009  -2.8940691992652246E-008   0.0000000000000000     
  -1.1741675921576319E-008  -7.1504374468227051E-008   0.0000000000000000     
   0.0000000000000000        0.0000000000000000        0.0000000000000000     
   1.3051278498754466E-009  -6.6714831440697407E-008   0.0000000000000000     
  -7.0560092156585472E-011  -5.2188807380537816E-008   0.0000000000000000     
  -3.9404104330717316E-009  -2.9179465743282392E-008   0.0000000000000000     
  -1.0117769779845620E-008  -7.0444344452692321E-008   0.0000000000000000     
   0.0000000000000000        0.0000000000000000        0.0000000000000000     
   2.1392811666596041E-009  -6.6889022093688248E-008   0.0000000000000000     
  -4.1039684349895262E-010  -5.2540823090415645E-008   0.0000000000000000     
  -4.9707482087449215E-009  -2.9343027482323343E-008   0.0000000000000000     
  -8.8634871073475504E-009  -6.9683259761552476E-008   0.0000000000000000     
   0.0000000000000000        0.0000000000000000        0.0000000000000000     
   2.1392811666596041E-009  -6.6889022093688248E-008   0.0000000000000000     
  -4.1039684349895262E-010  -5.2540823090415645E-008   0.0000000000000000     
  -4.9707482087449215E-009  -2.9343027482323343E-008   0.0000000000000000     
  -8.8634871073475504E-009  -6.9683259761552476E-008   0.0000000000000000     
   0.0000000000000000        0.0000000000000000        0.0000000000000000     
   2.9281508510782634E-009  -6.6846396415452226E-008   0.0000000000000000     
  -8.2102663411840570E-010  -5.2589855516131460E-008   0.0000000000000000     
  -6.1520066472850682E-009  -2.9428474136304207E-008   0.0000000000000000     
  -7.9692633801167764E-009  -6.9560349110236909E-008   0.0000000000000000     
   0.0000000000000000        0.0000000000000000        0.0000000000000000     
   3.5838238651468997E-009  -6.6477960661255602E-008   0.0000000000000000     
  -1.2971642872401611E-009  -5.2352284762744926E-008   0.0000000000000000     
  -7.3750715608082375E-009  -2.9500005548820345E-008   0.0000000000000000     
  -7.3820050592043806E-009  -6.9798156263834323E-008   0.0000000000000000     
   0.0000000000000000        0.0000000000000000        0.0000000000000000     
   3.9874884574036600E-009  -6.5717079806188781E-008   0.0000000000000000     
  -1.8262209639823519E-009  -5.1909609107640263E-008   0.0000000000000000     
  -8.4862539913560724E-009  -2.9638597292733659E-008   0.0000000000000000     
  -7.0377363519155346E-009  -6.9965053749848051E-008   0.0000000000000000     
   0.0000000000000000        0.0000000000000000        0.0000000000000000     
   4.0203328763866852E-009  -6.4497118825342025E-008   0.0000000000000000     
  -2.3956078254631127E-009  -5.1343326828201800E-008   0.0000000000000000     
  -9.3318649809702108E-009  -2.9925224940906065E-008   0.0000000000000000     
  -6.8724814655554167E-009  -6.9629414095781533E-008   0.0000000000000000     
   0.0000000000000000        0.0000000000000000        0.0000000000000000     
   4.0203328763866852E-009  -6.4497118825342025E-008   0.0000000000000000     
  -2.3956078254631127E-009  -5.1343326828201800E-008   0.0000000000000000     
  -9.3318649809702108E-009  -2.9925224940906065E-008   0.0000000000000000     
  -6.8724814655554167E-009  -6.9629414095781533E-008   0.0000000000000000     
   0.0000000000000000        0.0000000000000000        0.0000000000000000     
   3.6240108971465520E-009  -6.2804852402249175E-008   0.0000000000000000     
  -2.9934794947814599E-009  -5.0724789057502613E-008   0.0000000000000000     
  -9.8181207919440097E-009  -3.0410947519534421E-008   0.0000000000000000     
  -6.8155626105010802E-009  -6.8514465342118811E-008   0.0000000000000000     
   0.0000000000000000        0.0000000000000000        0.0000000000000000     
   2.9820384007835610E-009  -6.0840694054218007E-008   0.0000000000000000     
  -3.6109644429599294E-009  -5.0084758351371220E-008   0.0000000000000000     
  -1.0090858567577727E-008  -3.1027157868155485E-008   0.0000000000000000     
  -6.7694940094170836E-009  -6.6962857581266711E-008   0.0000000000000000     
   0.0000000000000000        0.0000000000000000        0.0000000000000000     
   2.3383967949104432E-009  -5.8858467006999758E-008   0.0000000000000000     
  -4.2399346030019411E-009  -4.9443850121325043E-008   0.0000000000000000     
  -1.0355820671423321E-008  -3.1675332279640957E-008   0.0000000000000000     
  -6.6300878880398612E-009  -6.5472096418612639E-008   0.0000000000000000     
   0.0000000000000000        0.0000000000000000        0.0000000000000000     
   1.9370674871399287E-009  -5.7111994486345665E-008   0.0000000000000000     
  -4.8722619079109152E-009  -4.8822679778881470E-008   0.0000000000000000     
  -1.0818749467032763E-008  -3.2256947046862563E-008   0.0000000000000000     
  -6.2931564721058459E-009  -6.4539687459544077E-008   0.0000000000000000     
   0.0000000000000000        0.0000000000000000        0.0000000000000000     
   1.9370674871399287E-009  -5.7111994486345665E-008   0.0000000000000000     
  -4.8722619079109152E-009  -4.8822679778881470E-008   0.0000000000000000     
  -1.0818749467032763E-008  -3.2256947046862563E-008   0.0000000000000000     
  -6.2931564721058459E-009  -6.4539687459544077E-008   0.0000000000000000     
   0.0000000000000000        0.0000000000000000        0.0000000000000000     
   1.9264655954137783E-009  -5.5786673709403805E-008   0.0000000000000000     
  -5.4980314674203533E-009  -4.8234161608426044E-008   0.0000000000000000     
  -1.1601690283226497E-008  -3.2693040175720882E-008   0.0000000000000000     
  -5.7127099467287610E-009  -6.4513885889942456E-008   0.0000000000000000     
   0.0000000000000000        0.0000000000000000        0.0000000000000000     
   2.0727410789898812E-009  -5.4794197858909594E-008   0.0000000000000000     
  -6.1001810981840803E-009  -4.7660405385817001E-008   0.0000000000000000     
  -1.2491900309898870E-008  -3.2982896524232177E-008   0.0000000000000000     
  -5.0755503345314777E-009  -6.5145945217665146E-008   0.0000000000000000     
   0.0000000000000000        0.0000000000000000        0.0000000000000000     
   2.0464776074551557E-009  -5.3977834108995288E-008   0.0000000000000000     
  -6.6598617935860030E-009  -4.7075819759780701E-008   0.0000000000000000     
  -1.3192939702212707E-008  -3.3145362663441619E-008   0.0000000000000000     
  -4.6266776175141512E-009  -6.6037868531063410E-008   0.0000000000000000     
   0.0000000000000000        0.0000000000000000        0.0000000000000000     
   1.5182588503965228E-009  -5.3180849633793177E-008   0.0000000000000000     
  -7.1582245470100423E-009  -4.6454813379043582E-008   0.0000000000000000     
  -1.3408368615330820E-008  -3.3199285164394358E-008   0.0000000000000000     
  -4.6110917776769382E-009  -6.6791658918488591E-008   0.0000000000000000     
   0.0000000000000000        0.0000000000000000        0.0000000000000000     
   1.5182588503965228E-009  -5.3180849633793177E-008   0.0000000000000000     
  -7.1582245470100423E-009  -4.6454813379043582E-008   0.0000000000000000     
  -1.3408368615330820E-008  -3.3199285164394358E-008   0.0000000000000000     
  -4.6110917776769382E-009  -6.6791658918488591E-008   0.0000000000000000     
   0.0000000000000000        0.0000000000000000        0.0000000000000000     
   2.8305856612165884E-010  -5.2285076297872297E-008   0.0000000000000000     
  -7.5815222696858617E-009  -4.5788158655396782E-008   0.0000000000000000     
  -1.2947242158355927E-008  -3.3167887934159236E-008   0.0000000000000000     
  -5.1676007508218929E-009  -6.7082904995745557E-008   0.0000000000000000     
   0.0000000000000000        0.0000000000000000        0.0000000000000000     
  -1.3665891321787215E-009  -5.1326604727549090E-008   0.0000000000000000     
  -7.9364155442261950E-009  -4.5132083052890431E-008   0.0000000000000000     
  -1.2040595256150234E-008  -3.3091904223899963E-008   0.0000000000000000     
  -6.0102442879586589E-009  -6.6881537488453637E-008   0.0000000000000000     
   0.0000000000000000        0.0000000000000000        0.0000000000000000     
  -3.0137600425931437E-009  -5.0380090239576752E-008   0.0000000000000000     
  -8.2346668710895251E-009  -4.4559177798639489E-008   0.0000000000000000     
  -1.1024957787515837E-008  -3.3016444620803879E-008   0.0000000000000000     
  -6.7468700938987711E-009  -6.6231072649685589E-008   0.0000000000000000     
   0.0000000000000000        0.0000000000000000        0.0000000000000000     
  -4.2415299632101347E-009  -4.9520188150708532E-008   0.0000000000000000     
  -8.4880387507343540E-009  -4.4142034119758895E-008   0.0000000000000000     
  -1.0236859631254840E-008  -3.2986619712058370E-008   0.0000000000000000     
  -6.9853258734537697E-009  -6.5175026732514266E-008   0.0000000000000000     
   0.0000000000000000        0.0000000000000000        0.0000000000000000     
  -4.2415299632101347E-009  -4.9520188150708532E-008   0.0000000000000000     
  -8.4880387507343540E-009  -4.4142034119758895E-008   0.0000000000000000     
  -1.0236859631254840E-008  -3.2986619712058370E-008   0.0000000000000000     
  -6.9853258734537697E-009  -6.5175026732514266E-008   0.0000000000000000     
   0.0000000000000000        0.0000000000000000        0.0000000000000000     
  -4.7310220573187459E-009  -4.8820170381632432E-008   0.0000000000000000     
  -8.7098616709157213E-009  -4.3924338659992573E-008   0.0000000000000000     
  -9.9366280323192804E-009  -3.3021784015764435E-008   0.0000000000000000     
  -6.4114303330577580E-009  -6.3821785629632030E-008   0.0000000000000000     
   0.0000000000000000        0.0000000000000000        0.0000000000000000     
  -4.5555489490101135E-009  -4.8347775268775705E-008   0.0000000000000000     
  -8.9197380685748931E-009  -4.3834159729600539E-008   0.0000000000000000     
  -1.0079779700261004E-008  -3.3038267773677449E-008   0.0000000000000000     
  -5.0228861856351143E-009  -6.2539213792209421E-008   0.0000000000000000     
   0.0000000000000000        0.0000000000000000        0.0000000000000000     
  -3.8864706275759065E-009  -4.8169357752500355E-008   0.0000000000000000     
  -9.1388383679496875E-009  -4.3770661055471800E-008   0.0000000000000000     
  -1.0545628710781823E-008  -3.2926645158466454E-008   0.0000000000000000     
  -2.8953671457327829E-009  -6.1760045311036437E-008   0.0000000000000000     
   0.0000000000000000        0.0000000000000000        0.0000000000000000     
  -2.8951470823077860E-009  -4.8351272773168433E-008   0.0000000000000000     
  -9.3883329932779165E-009  -4.3633006364495376E-008   0.0000000000000000     
  -1.1213489139583517E-008  -3.2577490342800433E-008   0.0000000000000000     
  -1.0454692789770454E-010  -6.1917014276903100E-008   0.0000000000000000     
   0.0000000000000000        0.0000000000000000        0.0000000000000000     
  -2.8951470823077860E-009  -4.8351272773168433E-008   0.0000000000000000     
  -9.3883329932779165E-009  -4.3633006364495376E-008   0.0000000000000000     
  -1.1213489139583517E-008  -3.2577490342800433E-008   0.0000000000000000     
  -1.0454692789770454E-010  -6.1917014276903100E-008   0.0000000000000000     
   0.0000000000000000        0.0000000000000000        0.0000000000000000     
  -1.6925187730908739E-009  -4.8878670120519406E-008   0.0000000000000000     
  -9.6851616696200158E-009  -4.3337287975549824E-008   0.0000000000000000     
  -1.2005331934149611E-008  -3.1946815913297114E-008   0.0000000000000000     
   3.3195671887581521E-009  -6.3278216281967086E-008   0.0000000000000000     
   0.0000000000000000        0.0000000000000000        0.0000000000000000     
  -1.4784804218412219E-010  -4.9411878981802679E-008   0.0000000000000000     
  -1.0029341325326857E-008  -4.2867312575471739E-008   0.0000000000000000     
  -1.3013755529090484E-008  -3.1252388112369097E-008   0.0000000000000000     
   7.5296336668627254E-009  -6.5453192923856684E-008   0.0000000000000000     
   0.0000000000000000        0.0000000000000000        0.0000000000000000     
   1.9300222975600590E-009  -4.9530023393645154E-008   0.0000000000000000     
  -1.0416658189571928E-008  -4.2223815443087241E-008   0.0000000000000000     
  -1.4374015230798219E-008  -3.0777411596377661E-008   0.0000000000000000     
   1.2723977404478923E-008  -6.7886847301567822E-008   0.0000000000000000     
   0.0000000000000000        0.0000000000000000        0.0000000000000000     
   4.7322494332892608E-009  -4.8812227392673724E-008   0.0000000000000000     
  -1.0842898491528717E-008  -4.1407531857222491E-008   0.0000000000000000     
  -1.6221366345664919E-008  -3.0805091021684126E-008   0.0000000000000000     
   1.9100923299669664E-008  -7.0024082514096455E-008   0.0000000000000000     
 </DataArray>
 </PointData>
 </Piece>
 <Piece  NumberOfPoints="           200 "  NumberOfCells="          128 ">
 <Points>
 <DataArray  type="Float64" NumberOfComponents="3"  format="ascii" >
   0.0000000000000000        0.0000000000000000        0.0000000000000000     
   2.5000000000000000        0.0000000000000000        0.0000000000000000     
   5.0000000000000000        0.0000000000000000        0.0000000000000000     
   7.5000000000000000        0.0000000000000000        0.0000000000000000     
   10.000000000000000        0.0000000000000000        0.0000000000000000     
   0.0000000000000000       0.15625000000000000        0.0000000000000000     
   2.5000000000000000       0.15625000000000000        0.0000000000000000     
   5.0000000000000000       0.15624999999999997        0.0000000000000000     
   7.5000000000000000       0.15625000000000003        0.0000000000000000     
   10.000000000000000       0.15625000000000000        0.0000000000000000     
   0.0000000000000000       0.31250000000000006        0.0000000000000000     
   2.5000000000000000       0.31250000000000000        0.0000000000000000     
   5.0000000000000000       0.31250000000000006        0.0000000000000000     
   7.4999999999999982       0.31249999999999994        0.0000000000000000     
   10.000000000000000       0.31250000000000006        0.0000000000000000     
   0.0000000000000000       0.46875000000000000        0.0000000000000000     
   2.5000000000000000       0.46875000000000000        0.0000000000000000     
   5.0000000000000000       0.46875000000000000        0.0000000000000000     
   7.5000000000000000       0.46875000000000000        0.0000000000000000     
   10.000000000000000       0.46875000000000000        0.0000000000000000     
   0.0000000000000000       0.62500000000000011        0.0000000000000000     
   2.5000000000000000       0.62500000000000000        0.0000000000000000     
   5.0000000000000009       0.62500000000000000        0.0000000000000000     
   7.4999999999999991       0.62500000000000000        0.0000000000000000     
   10.000000000000000       0.62500000000000011        0.0000000000000000     
   0.0000000000000000       0.62500000000000011        0.0000000000000000     
   2.5000000000000000       0.62500000000000000        0.0000000000000000     
   5.0000000000000009       0.62500000000000000        0.0000000000000000     
   7.4999999999999991       0.62500000000000000        0.0000000000000000     
   10.000000000000000       0.62500000000000011        0.0000000000000000     
   0.0000000000000000       0.78124999999999989        0.0000000000000000     
   2.5000000000000000       0.78125000000000011        0.0000000000000000     
   5.0000000000000009       0.78125000000000011        0.0000000000000000     
   7.5000000000000000       0.78125000000000000        0.0000000000000000     
   9.9999999999999982       0.78124999999999989        0.0000000000000000     
   0.0000000000000000       0.93749999999999989        0.0000000000000000     
   2.5000000000000000       0.93749999999999989        0.0000000000000000     
   5.0000000000000000       0.93750000000000000        0.0000000000000000     
   7.4999999999999991       0.93749999999999989        0.0000000000000000     
   10.000000000000000       0.93749999999999989        0.0000000000000000     
   0.0000000000000000        1.0937499999999998        0.0000000000000000     
   2.5000000000000000        1.0937500000000000        0.0000000000000000     
   5.0000000000000009        1.0937500000000004        0.0000000000000000     
   7.5000000000000000        1.0937500000000000        0.0000000000000000     
   10.000000000000000        1.0937499999999998        0.0000000000000000     
   0.0000000000000000        1.2500000000000002        0.0000000000000000     
   2.4999999999999996        1.2500000000000000        0.0000000000000000     
   4.9999999999999991        1.2499999999999998        0.0000000000000000     
   7.5000000000000009        1.2500000000000002        0.0000000000000000     