 <VTKFile type="UnstructuredGrid"  version="0.1"   >
 <UnstructuredGrid>
 <Piece  NumberOfPoints="           200 "  NumberOfCells="          128 ">
 <Points>
 <DataArray  type="Float64" NumberOfComponents="3"  format="ascii" >
  -10.000000000000000        0.0000000000000000        0.0000000000000000     
  -7.5000000000000000        0.0000000000000000        0.0000000000000000     
  -5.0000000000000000        0.0000000000000000        0.0000000000000000     
  -2.4999999999999996        0.0000000000000000        0.0000000000000000     
   0.0000000000000000        0.0000000000000000        0.0000000000000000     
  -10.000000000000000       0.15625000000000000        0.0000000000000000     
  -7.5000000000000000       0.15625000000000000        0.0000000000000000     
  -5.0000000000000000       0.15624999999999997        0.0000000000000000     
  -2.5000000000000000       0.15625000000000003        0.0000000000000000     
   0.0000000000000000       0.15625000000000000        0.0000000000000000     
  -10.000000000000000       0.31250000000000006        0.0000000000000000     
  -7.5000000000000000       0.31250000000000000        0.0000000000000000     
  -5.0000000000000000       0.31250000000000006        0.0000000000000000     
  -2.4999999999999996       0.31249999999999994        0.0000000000000000     
   0.0000000000000000       0.31250000000000006        0.0000000000000000     
  -10.000000000000000       0.46875000000000000        0.0000000000000000     
  -7.5000000000000000       0.46875000000000000        0.0000000000000000     
  -5.0000000000000000       0.46875000000000000        0.0000000000000000     
  -2.4999999999999996       0.46875000000000000        0.0000000000000000     
   0.0000000000000000       0.46875000000000000        0.0000000000000000     
  -10.000000000000000       0.62500000000000011        0.0000000000000000     
  -7.5000000000000000       0.62500000000000000        0.0000000000000000     
  -5.0000000000000009       0.62500000000000000        0.0000000000000000     
  -2.4999999999999996       0.62500000000000000        0.0000000000000000     
   0.0000000000000000       0.62500000000000011        0.0000000000000000     
  -10.000000000000000       0.62500000000000011        0.0000000000000000     
  -7.5000000000000000       0.62500000000000000        0.0000000000000000     
  -5.0000000000000009       0.62500000000000000        0.0000000000000000     
  -2.4999999999999996       0.62500000000000000        0.0000000000000000     
   0.0000000000000000       0.62500000000000011        0.0000000000000000     
  -9.9999999999999982       0.78124999999999989        0.0000000000000000     
  -7.5000000000000000       0.78125000000000011        0.0000000000000000     
  -5.0000000000000009       0.78125000000000011        0.0000000000000000     
  -2.4999999999999996       0.78125000000000000        0.0000000000000000     
   0.0000000000000000       0.78124999999999989        0.0000000000000000     
  -10.000000000000000       0.93749999999999989        0.0000000000000000     
  -7.4999999999999991       0.93749999999999989        0.0000000000000000     
  -5.0000000000000000       0.93750000000000000        0.0000000000000000     
  -2.5000000000000000       0.93749999999999989        0.0000000000000000     
   0.0000000000000000       0.93749999999999989        0.0000000000000000     
  -10.000000000000000        1.0937499999999998        0.0000000000000000     
  -7.5000000000000000        1.0937500000000000        0.0000000000000000     
  -5.0000000000000009        1.0937500000000004        0.0000000000000000     
  -2.5000000000000000        1.0937500000000000        0.0000000000000000     
   0.0000000000000000        1.0937499999999998        0.0000000000000000     
  -10.000000000000004        1.2500000000000002        0.0000000000000000     
  -7.5000000000000000        1.2500000000000000        0.0000000000000000     
  -4.9999999999999991        1.2499999999999998        0.0000000000000000     
  -2.5000000000000000        1.2500000000000002        0.0000000000000000     
   0.0000000000000000        1.2500000000000002        0.0000000000000000     
  -10.000000000000004        1.2500000000000002        0.0000000000000000     
  -7.5000000000000000        1.2500000000000000        0.0000000000000000     
  -4.9999999999999991        1.2499999999999998        0.0000000000000000     
  -2.5000000000000000        1.2500000000000002        0.0000000000000000     
   0.0000000000000000        1.2500000000000002        0.0000000000000000     
  -9.9999999999999982        1.4062499999999998        0.0000000000000000     
  -7.4999999999999991        1.4062500000000000        0.0000000000000000     
  -5.0000000000000009        1.4062500000000002        0.0000000000000000     
  -2.5000000000000000        1.4062500000000000        0.0000000000000000     
   0.0000000000000000        1.4062499999999998        0.0000000000000000     
  -10.000000000000002        1.5625000000000002        0.0000000000000000     
  -7.4999999999999982        1.5624999999999998        0.0000000000000000     
  -5.0000000000000009        1.5625000000000004        0.0000000000000000     
  -2.5000000000000004        1.5625000000000000        0.0000000000000000     
   0.0000000000000000        1.5625000000000002        0.0000000000000000     
  -10.000000000000002        1.7187500000000002        0.0000000000000000     
  -7.5000000000000000        1.7187500000000000        0.0000000000000000     
  -4.9999999999999982        1.7187500000000000        0.0000000000000000     
  -2.4999999999999996        1.7187500000000002        0.0000000000000000     
   0.0000000000000000        1.7187500000000002        0.0000000000000000     
  -10.000000000000004        1.8750000000000004        0.0000000000000000     
  -7.5000000000000000        1.8750000000000000        0.0000000000000000     
  -4.9999999999999991        1.8750000000000000        0.0000000000000000     
  -2.5000000000000000        1.8750000000000002        0.0000000000000000     
   0.0000000000000000        1.8750000000000004        0.0000000000000000     
  -10.000000000000004        1.8750000000000004        0.0000000000000000     
  -7.5000000000000000        1.8750000000000000        0.0000000000000000     
  -4.9999999999999991        1.8750000000000000        0.0000000000000000     
  -2.5000000000000000        1.8750000000000002        0.0000000000000000     
   0.0000000000000000        1.8750000000000004        0.0000000000000000     
  -9.9999999999999982        2.0312500000000000        0.0000000000000000     
  -7.4999999999999991        2.0312500000000000        0.0000000000000000     
  -5.0000000000000009        2.0312500000000004        0.0000000000000000     
  -2.5000000000000000        2.0312500000000000        0.0000000000000000     
   0.0000000000000000        2.0312500000000000        0.0000000000000000     
  -10.000000000000002        2.1875000000000004        0.0000000000000000     
  -7.4999999999999982        2.1874999999999996        0.0000000000000000     
  -5.0000000000000009        2.1875000000000004        0.0000000000000000     
  -2.5000000000000004        2.1875000000000004        0.0000000000000000     
   0.0000000000000000        2.1875000000000004        0.0000000000000000     
  -10.000000000000002        2.3437500000000004        0.0000000000000000     
  -7.5000000000000000        2.3437500000000000        0.0000000000000000     
  -4.9999999999999982        2.3437499999999996        0.0000000000000000     
  -2.4999999999999996        2.3437500000000004        0.0000000000000000     
   0.0000000000000000        2.3437500000000004        0.0000000000000000     
  -10.000000000000004        2.5000000000000004        0.0000000000000000     
  -7.5000000000000000        2.5000000000000000        0.0000000000000000     
  -4.9999999999999991        2.5000000000000000        0.0000000000000000     
  -2.5000000000000000        2.5000000000000000        0.0000000000000000     
   0.0000000000000000        2.5000000000000004        0.0000000000000000     
  -10.000000000000004        2.5000000000000004        0.0000000000000000     
  -7.5000000000000000        2.5000000000000000        0.0000000000000000     
  -4.9999999999999991        2.5000000000000000        0.0000000000000000     
  -2.5000000000000000        2.5000000000000000        0.0000000000000000     
   0.0000000000000000        2.5000000000000004        0.0000000000000000     
  -9.9999999999999982        2.6562500000000000        0.0000000000000000     
  -7.4999999999999991        2.6562500000000000        0.0000000000000000     
  -5.0000000000000009        2.6562500000000004        0.0000000000000000     
  -2.5000000000000000        2.6562500000000000        0.0000000000000000     
   0.0000000000000000        2.6562500000000000        0.0000000000000000     
  -10.000000000000002        2.8125000000000004        0.0000000000000000     
  -7.4999999999999982        2.8124999999999996        0.0000000000000000     
  -5.0000000000000009        2.8125000000000004        0.0000000000000000     
  -2.5000000000000004        2.8125000000000000        0.0000000000000000     
   0.0000000000000000        2.8125000000000004        0.0000000000000000     
  -10.000000000000002        2.9687500000000000        0.0000000000000000     
  -7.5000000000000000        2.9687499999999996        0.0000000000000000     
  -4.9999999999999982        2.9687500000000000        0.0000000000000000     
  -2.4999999999999996        2.9687500000000004        0.0000000000000000     
   0.0000000000000000        2.9687500000000000        0.0000000000000000     
  -10.000000000000004        3.1250000000000000        0.0000000000000000     
  -7.5000000000000000        3.1250000000000000        0.0000000000000000     
  -4.9999999999999991        3.1250000000000000        0.0000000000000000     
[...]
 <PointData>
 <DataArray  type="Float64" Name="disp" NumberOfComponents="3" format="ascii">
   0.0000000000000000        0.0000000000000000        0.0000000000000000     
  -1.6972024901471462E-002 -0.10896697684242701        0.0000000000000000     
   1.2353411537489825E-002  -9.3164401037117317E-002   0.0000000000000000     
   4.5917748902138372E-002  -3.9833018918013156E-002   0.0000000000000000     
   4.1662426777728689E-002  -3.6213576819056792E-002   0.0000000000000000     
   0.0000000000000000        0.0000000000000000        0.0000000000000000     
  -1.4879948307155567E-002 -0.10845691406715233        0.0000000000000000     
   1.0935285693740325E-002  -9.4174457201635323E-002   0.0000000000000000     
   4.2092525220320379E-002  -4.1128844416613658E-002   0.0000000000000000     
   4.3238593490217261E-002  -3.3296290725251851E-002   0.0000000000000000     
   0.0000000000000000        0.0000000000000000        0.0000000000000000     
  -1.3696308453499364E-002 -0.10750168043899497        0.0000000000000000     
   9.8459296657036621E-003  -9.4487593667493819E-002   0.0000000000000000     
   3.8999345518286682E-002  -4.2376531333804320E-002   0.0000000000000000     
   4.2136570264927370E-002  -3.2587285086234326E-002   0.0000000000000000     
   0.0000000000000000        0.0000000000000000        0.0000000000000000     
  -1.2899919071103612E-002 -0.10624380860038234        0.0000000000000000     
   8.9696485330475560E-003  -9.4408260151521317E-002   0.0000000000000000     
   3.6267875548389485E-002  -4.3612958061615976E-002   0.0000000000000000     
   3.9653934710858145E-002  -3.2977505738865459E-002   0.0000000000000000     
   0.0000000000000000        0.0000000000000000        0.0000000000000000     
  -1.1969593890569088E-002 -0.10482583119374184        0.0000000000000000     
   8.1907473754397695E-003  -9.4240906370546412E-002   0.0000000000000000     
   3.3527781062980926E-002  -4.4875002992079374E-002   0.0000000000000000     
   3.7088264437008772E-002  -3.3357898520006528E-002   0.0000000000000000     
   0.0000000000000000        0.0000000000000000        0.0000000000000000     
  -1.1969593890569088E-002 -0.10482583119374184        0.0000000000000000     
   8.1907473754397695E-003  -9.4240906370546412E-002   0.0000000000000000     
   3.3527781062980926E-002  -4.4875002992079374E-002   0.0000000000000000     
   3.7088264437008772E-002  -3.3357898520006528E-002   0.0000000000000000     
   0.0000000000000000        0.0000000000000000        0.0000000000000000     
  -1.0526164492980007E-002 -0.10337674541395862        0.0000000000000000     
   7.4197668625996891E-003  -9.4226705721038556E-002   0.0000000000000000     
   3.0507897797423605E-002  -4.6181715530380807E-002   0.0000000000000000     
   3.5408332042176249E-002  -3.2873609451126370E-002   0.0000000000000000     
   0.0000000000000000        0.0000000000000000        0.0000000000000000     
  -8.7585338613543652E-003 -0.10197140666574889        0.0000000000000000     
   6.6721900244533783E-003  -9.4353726318030851E-002   0.0000000000000000     
   2.7333741419121722E-002  -4.7480829134328405E-002   0.0000000000000000     
   3.4267690084349163E-002  -3.1686585292124043E-002   0.0000000000000000     
   0.0000000000000000        0.0000000000000000        0.0000000000000000     
  -6.9976228291935942E-003 -0.10067113490628675        0.0000000000000000     
   5.9897354809785681E-003  -9.4546759956197407E-002   0.0000000000000000     
   2.4229997578489926E-002  -4.8702248274885881E-002   0.0000000000000000     
   3.2991086111313912E-002  -3.0212972987506175E-002   0.0000000000000000     
   0.0000000000000000        0.0000000000000000        0.0000000000000000     
  -5.5743522299991416E-003  -9.9537250092746193E-002   0.0000000000000000     
   5.4141218521529741E-003  -9.4730598430212157E-002   0.0000000000000000     
   2.1421351925942845E-002  -4.9775877423016895E-002   0.0000000000000000     
   3.0903267670856962E-002  -2.8868919481779391E-002   0.0000000000000000     
   0.0000000000000000        0.0000000000000000        0.0000000000000000     
  -5.5743522299991416E-003  -9.9537250092746193E-002   0.0000000000000000     
   5.4141218521529741E-003  -9.4730598430212157E-002   0.0000000000000000     
   2.1421351925942845E-002  -4.9775877423016895E-002   0.0000000000000000     
   3.0903267670856962E-002  -2.8868919481779391E-002   0.0000000000000000     
   0.0000000000000000        0.0000000000000000        0.0000000000000000     
  -4.7191852526330550E-003  -9.8605982256587177E-002   0.0000000000000000     
   4.9673086954589527E-003  -9.4847172209133371E-002   0.0000000000000000     
   1.9059543571026440E-002  -5.0654418123770757E-002   0.0000000000000000     
   2.7557581100819808E-002  -2.7958568266631741E-002   0.0000000000000000     
   0.0000000000000000        0.0000000000000000        0.0000000000000000     
  -4.2607545073998151E-003  -9.7813201726413349E-002   0.0000000000000000     
   4.5922193183973881E-003  -9.4906966459555764E-002   0.0000000000000000     
   1.7004525459812007E-002  -5.1381760218539539E-002   0.0000000000000000     
   2.3421767899264440E-002  -2.7338049022477141E-002   0.0000000000000000     
   0.0000000000000000        0.0000000000000000        0.0000000000000000     
  -3.9272349599645132E-003  -9.7069688905114249E-002   0.0000000000000000     
   4.2120179659737838E-003  -9.4937605022458293E-002   0.0000000000000000     
   1.5043303997502172E-002  -5.2024590622800952E-002   0.0000000000000000     
   1.9192168354307908E-002  -2.6751487976910907E-002   0.0000000000000000     
   0.0000000000000000        0.0000000000000000        0.0000000000000000     
  -3.4468015759922394E-003  -9.6286224195579403E-002   0.0000000000000000     
   3.7498688831936631E-003  -9.4966711738820014E-002   0.0000000000000000     
   1.2962885589299552E-002  -5.2649596252032714E-002   0.0000000000000000     
   1.5565122754067264E-002  -2.5943011357528380E-002   0.0000000000000000     
   0.0000000000000000        0.0000000000000000        0.0000000000000000     
  -3.4468015759922394E-003  -9.6286224195579403E-002   0.0000000000000000     
   3.7498688831936631E-003  -9.4966711738820014E-002   0.0000000000000000     
   1.2962885589299552E-002  -5.2649596252032714E-002   0.0000000000000000     
   1.5565122754067264E-002  -2.5943011357528380E-002   0.0000000000000000     
   0.0000000000000000        0.0000000000000000        0.0000000000000000     
  -2.6319000745971652E-003  -9.5398530800197320E-002   0.0000000000000000     
   3.1539705338609618E-003  -9.5011481895044339E-002   0.0000000000000000     
   1.0619148928481448E-002  -5.3306046456652365E-002   0.0000000000000000     
   1.3025172212371355E-002  -2.4749417657132747E-002   0.0000000000000000     
   0.0000000000000000        0.0000000000000000        0.0000000000000000     
  -1.6320591886897875E-003  -9.4442103119352305E-002   0.0000000000000000     
   2.4726582569733393E-003  -9.5047396559232958E-002   0.0000000000000000     
   8.1434618606238355E-003  -5.3973540326836780E-002   0.0000000000000000     
   1.1209661145896143E-002  -2.3378194429358623E-002   0.0000000000000000     
   0.0000000000000000        0.0000000000000000        0.0000000000000000     
  -6.8107840462968664E-004  -9.3477378352927645E-002   0.0000000000000000     
   1.7793016103268917E-003  -9.5039508244912085E-002   0.0000000000000000     
   5.7360645193773631E-003  -5.4614259387702646E-002   0.0000000000000000     
   9.5441347970293515E-003  -2.2129501493048428E-002   0.0000000000000000     
   0.0000000000000000        0.0000000000000000        0.0000000000000000     
  -1.2757208776441624E-005  -9.2564793700806516E-002   0.0000000000000000     
   1.1472701517177106E-003  -9.4952869465608006E-002   0.0000000000000000     
   3.5971970383926887E-003  -5.5190385164366647E-002   0.0000000000000000     
   7.4541384081587211E-003  -2.1303498667044611E-002   0.0000000000000000     
   0.0000000000000000        0.0000000000000000        0.0000000000000000     
  -1.2757208776441624E-005  -9.2564793700806516E-002   0.0000000000000000     
   1.1472701517177106E-003  -9.4952869465608006E-002   0.0000000000000000     
   3.5971970383926887E-003  -5.5190385164366647E-002   0.0000000000000000     
   7.4541384081587211E-003  -2.1303498667044611E-002   0.0000000000000000     
   0.0000000000000000        0.0000000000000000        0.0000000000000000     
   2.1073797176254382E-004  -9.1745101376422694E-002   0.0000000000000000     
   6.3391775607905820E-004  -9.4757792187604703E-002   0.0000000000000000     
   1.8700690018520754E-003  -5.5668788187223331E-002   0.0000000000000000     
   4.5197213579841250E-003  -2.1108805128955965E-002   0.0000000000000000     
   0.0000000000000000        0.0000000000000000        0.0000000000000000     
   1.1377294688856899E-004  -9.0980313647411770E-002   0.0000000000000000     
   2.3253556689288387E-004  -9.4445626188217502E-002   0.0000000000000000     
   4.6976779606425965E-004  -5.6035095007778667E-002   0.0000000000000000     
   9.3894957045401206E-004  -2.1387877491456733E-002   0.0000000000000000     
   0.0000000000000000        0.0000000000000000        0.0000000000000000     
  -1.0765341424489061E-004  -9.0212757794959769E-002   0.0000000000000000     
  -7.9600955221690223E-005  -9.4012980697519594E-002   0.0000000000000000     
  -7.4564974213040241E-004  -5.6279621182816486E-002   0.0000000000000000     
  -2.9356068941710279E-003  -2.1891631725987456E-002   0.0000000000000000     
   0.0000000000000000        0.0000000000000000        0.0000000000000000     
  -2.5754224248436043E-004  -8.9384761100252744E-002   0.0000000000000000     
  -3.2521634964554345E-004  -9.3456464945584114E-002   0.0000000000000000     
  -1.9181267758915570E-003  -5.6392682269120628E-002   0.0000000000000000     
  -6.7513779756304074E-003  -2.2370983803988723E-002   0.0000000000000000     
   0.0000000000000000        0.0000000000000000        0.0000000000000000     
  -2.5754224248436043E-004  -8.9384761100252744E-002   0.0000000000000000     
  -3.2521634964554345E-004  -9.3456464945584114E-002   0.0000000000000000     
  -1.9181267758915570E-003  -5.6392682269120628E-002   0.0000000000000000     
  -6.7513779756304074E-003  -2.2370983803988723E-002   0.0000000000000000     
   0.0000000000000000        0.0000000000000000        0.0000000000000000     
  -1.6527979346350635E-004  -8.8465446082595031E-002   0.0000000000000000     
  -5.2476707976880504E-004  -9.2794490528308057E-002   0.0000000000000000     
  -3.1770075629693945E-003  -5.6372508117196136E-002   0.0000000000000000     
  -1.0220546947118771E-002  -2.2584873629316420E-002   0.0000000000000000     
   0.0000000000000000        0.0000000000000000        0.0000000000000000     
   2.3820717803544301E-004  -8.7531116213764096E-002   0.0000000000000000     
  -6.8963730501860445E-004  -9.2132678504883561E-002   0.0000000000000000     
  -4.6012407394762853E-003  -5.6248985752433152E-002   0.0000000000000000     
  -1.3314310415651745E-002  -2.2324336835487731E-002   0.0000000000000000     
   0.0000000000000000        0.0000000000000000        0.0000000000000000     
   9.9660679244311821E-004  -8.6684870203655687E-002   0.0000000000000000     
  -8.2894310883132140E-004  -9.1598452300326594E-002   0.0000000000000000     
  -6.2571760361151401E-003  -5.6059916493942992E-002   0.0000000000000000     
  -1.6068618321700163E-002  -2.1388432988435149E-002   0.0000000000000000     
   0.0000000000000000        0.0000000000000000        0.0000000000000000     
   2.1536071701901494E-003  -8.6029806762165581E-002   0.0000000000000000     
  -9.5180057464333621E-004  -9.1319235339653193E-002   0.0000000000000000     
  -8.2111631835888772E-003  -5.5843101660837009E-002   0.0000000000000000     
  -1.8519420605734888E-002  -1.9576221654091171E-002   0.0000000000000000     
   0.0000000000000000        0.0000000000000000        0.0000000000000000     
   2.1536071701901494E-003  -8.6029806762165581E-002   0.0000000000000000     
  -9.5180057464333621E-004  -9.1319235339653193E-002   0.0000000000000000     
  -8.2111631835888772E-003  -5.5843101660837009E-002   0.0000000000000000     
  -1.8519420605734888E-002  -1.9576221654091171E-002   0.0000000000000000     
   0.0000000000000000        0.0000000000000000        0.0000000000000000     
   3.7343761083732728E-003  -8.5661027316619745E-002   0.0000000000000000     
  -1.0716220719661129E-003  -9.1368924788956057E-002   0.0000000000000000     
  -1.0509568714025523E-002  -5.5608211184981292E-002   0.0000000000000000     
  -2.0671037990812314E-002  -1.6863405272667751E-002   0.0000000000000000     
   0.0000000000000000        0.0000000000000000        0.0000000000000000     
   5.6900001107536551E-003  -8.5641644164065250E-002   0.0000000000000000     
  -1.2190051146114473E-003  -9.1607312778634986E-002   0.0000000000000000     
  -1.3118826365253591E-002  -5.5252389449260898E-002   0.0000000000000000     
  -2.2401274330331067E-002  -1.3932257781494661E-002   0.0000000000000000     
   0.0000000000000000        0.0000000000000000        0.0000000000000000     
   7.9530453577585630E-003  -8.6026772318979400E-002   0.0000000000000000     
  -1.4288435024662229E-003  -9.1840665180166536E-002   0.0000000000000000     
  -1.5985386676526724E-002  -5.4644649449315665E-002   0.0000000000000000     
  -2.3556304260275319E-002  -1.1641695992181128E-002   0.0000000000000000     
   0.0000000000000000        0.0000000000000000        0.0000000000000000     
   1.0456078029815267E-002  -8.6871526795839538E-002   0.0000000000000000     
  -1.7360310354173208E-003  -9.1875247865027210E-002   0.0000000000000000     
  -1.9055700187098554E-002  -5.3654004180785392E-002   0.0000000000000000     
  -2.3982302416629218E-002  -1.0850636716336374E-002   0.0000000000000000     
   0.0000000000000000        0.0000000000000000        0.0000000000000000     
   1.0456078029815267E-002  -8.6871526795839538E-002   0.0000000000000000     
  -1.7360310354173208E-003  -9.1875247865027210E-002   0.0000000000000000     
  -1.9055700187098554E-002  -5.3654004180785392E-002   0.0000000000000000     
  -2.3982302416629218E-002  -1.0850636716336374E-002   0.0000000000000000     
   0.0000000000000000        0.0000000000000000        0.0000000000000000     
   1.3079763975617893E-002  -8.8124373295746058E-002   0.0000000000000000     
  -2.1629591503925759E-003  -9.1566538907605952E-002   0.0000000000000000     
  -2.2247015037599387E-002  -5.2239409993882928E-002   0.0000000000000000     
  -2.3691249345570521E-002  -1.2055899712880168E-002   0.0000000000000000     
   0.0000000000000000        0.0000000000000000        0.0000000000000000     
   1.5497167716927961E-002  -8.9307180266292072E-002   0.0000000000000000     
  -2.6820098324836527E-003  -9.0966865193941204E-002   0.0000000000000000     
  -2.5359769774166274E-002  -5.0719596657113335E-002   0.0000000000000000     
  -2.3358349234051345E-002  -1.4305916529974436E-002   0.0000000000000000     
   0.0000000000000000        0.0000000000000000        0.0000000000000000     
   1.7329453443773860E-002  -8.9835166841693834E-002   0.0000000000000000     
  -3.2530627038231687E-003  -9.0177765812983743E-002   0.0000000000000000     
  -2.8165200544312954E-002  -4.9503237293554721E-002   0.0000000000000000     
  -2.3824612179217358E-002  -1.6287021663091632E-002   0.0000000000000000     
   0.0000000000000000        0.0000000000000000        0.0000000000000000     
   1.8197785346183971E-002  -8.9123552156167574E-002   0.0000000000000000     
  -3.8359973865437387E-003  -8.9300779853684481E-002   0.0000000000000000     
  -3.0434543495553142E-002  -4.8999005026285208E-002   0.0000000000000000     
  -2.5931048278214262E-002  -1.6685549607704218E-002   0.0000000000000000     
 </DataArray>
 </PointData>
 </Piece>
 <Piece  NumberOfPoints="           200 "  NumberOfCells="          128 ">
 <Points>
 <DataArray  type="Float64" NumberOfComponents="3"  format="ascii" >
   0.0000000000000000        0.0000000000000000        0.0000000000000000     
   2.5000000000000000        0.0000000000000000        0.0000000000000000     
   5.0000000000000000        0.0000000000000000        0.0000000000000000     
   7.5000000000000000        0.0000000000000000        0.0000000000000000     
   10.000000000000000        0.0000000000000000        0.0000000000000000     
   0.0000000000000000       0.15625000000000000        0.0000000000000000     
   2.5000000000000000       0.15625000000000000        0.0000000000000000     
   5.0000000000000000       0.15624999999999997        0.0000000000000000     
   7.5000000000000000       0.15625000000000003        0.0000000000000000     
   10.000000000000000       0.15625000000000000        0.0000000000000000     
   0.0000000000000000       0.31250000000000006        0.0000000000000000     
   2.5000000000000000       0.31250000000000000        0.0000000000000000     
   5.0000000000000000       0.31250000000000006        0.0000000000000000     
   7.4999999999999982       0.31249999999999994        0.0000000000000000     
   10.000000000000000       0.31250000000000006        0.0000000000000000     
   0.0000000000000000       0.46875000000000000        0.0000000000000000     
   2.5000000000000000       0.46875000000000000        0.0000000000000000     
   5.0000000000000000       0.46875000000000000        0.0000000000000000     
   7.5000000000000000       0.46875000000000000        0.0000000000000000     
   10.000000000000000       0.46875000000000000        0.0000000000000000     
   0.0000000000000000       0.62500000000000011        0.0000000000000000     
   2.5000000000000000       0.62500000000000000        0.0000000000000000     
   5.0000000000000009       0.62500000000000000        0.0000000000000000     
   7.4999999999999991       0.62500000000000000        0.0000000000000000     
   10.000000000000000       0.62500000000000011        0.0000000000000000     
   0.0000000000000000       0.62500000000000011        0.0000000000000000     
   2.5000000000000000       0.62500000000000000        0.0000000000000000     
   5.0000000000000009       0.62500000000000000        0.0000000000000000     
   7.4999999999999991       0.62500000000000000        0.0000000000000000     
   10.000000000000000       0.62500000000000011        0.0000000000000000     
   0.0000000000000000       0.78124999999999989        0.0000000000000000     
   2.5000000000000000       0.78125000000000011        0.0000000000000000     
   5.0000000000000009       0.78125000000000011        0.0000000000000000     
   7.5000000000000000       0.78125000000000000        0.0000000000000000     
   9.9999999999999982       0.78124999999999989        0.0000000000000000     
   0.0000000000000000       0.93749999999999989        0.0000000000000000     
   2.5000000000000000       0.93749999999999989        0.0000000000000000     
   5.0000000000000000       0.93750000000000000        0.0000000000000000     
   7.4999999999999991       0.93749999999999989        0.0000000000000000     
   10.000000000000000       0.93749999999999989        0.0000000000000000     
   0.0000000000000000        1.0937499999999998        0.0000000000000000     
   2.5000000000000000        1.0937500000000000        0.0000000000000000     
   5.0000000000000009        1.0937500000000004        0.0000000000000000     
   7.5000000000000000        1.0937500000000000        0.0000000000000000     
   10.000000000000000        1.0937499999999998        0.0000000000000000     
   0.0000000000000000        1.2500000000000002        0.0000000000000000     
   2.4999999999999996        1.2500000000000000        0.0000000000000000     
   4.9999999999999991        1.2499999999999998        0.0000000000000000     
   7.5000000000000009        1.2500000000000002        0.0000000000000000     