 <VTKFile type="UnstructuredGrid"  version="0.1"   >
 <UnstructuredGrid>
 <Piece  NumberOfPoints="           200 "  NumberOfCells="          128 ">
 <Points>
 <DataArray  type="Float64" NumberOfComponents="3"  format="ascii" >
  -10.000000000000000        0.0000000000000000        0.0000000000000000     
  -7.5000000000000000        0.0000000000000000        0.0000000000000000     
  -5.0000000000000000        0.0000000000000000        0.0000000000000000     
  -2.4999999999999996        0.0000000000000000        0.0000000000000000     
   0.0000000000000000        0.0000000000000000        0.0000000000000000     
  -10.000000000000000       0.15625000000000000        0.0000000000000000     
  -7.5000000000000000       0.15625000000000000        0.0000000000000000     
  -5.0000000000000000       0.15624999999999997        0.0000000000000000     
  -2.5000000000000000       0.15625000000000003        0.0000000000000000     
   0.0000000000000000       0.15625000000000000        0.0000000000000000     
  -10.000000000000000       0.31250000000000006        0.0000000000000000     
  -7.5000000000000000       0.31250000000000000        0.0000000000000000     
  -5.0000000000000000       0.31250000000000006        0.0000000000000000     
  -2.4999999999999996       0.31249999999999994        0.0000000000000000     
   0.0000000000000000       0.31250000000000006        0.0000000000000000     
  -10.000000000000000       0.46875000000000000        0.0000000000000000     
  -7.5000000000000000       0.46875000000000000        0.0000000000000000     
  -5.0000000000000000       0.46875000000000000        0.0000000000000000     
  -2.4999999999999996       0.46875000000000000        0.0000000000000000     
   0.0000000000000000       0.46875000000000000        0.0000000000000000     
  -10.000000000000000       0.62500000000000011        0.0000000000000000     
  -7.5000000000000000       0.62500000000000000        0.0000000000000000     
  -5.0000000000000009       0.62500000000000000        0.0000000000000000     
  -2.4999999999999996       0.62500000000000000        0.0000000000000000     
   0.0000000000000000       0.62500000000000011        0.0000000000000000     
  -10.000000000000000       0.62500000000000011        0.0000000000000000     
  -7.5000000000000000       0.62500000000000000        0.0000000000000000     
  -5.0000000000000009       0.62500000000000000        0.0000000000000000     
  -2.4999999999999996       0.62500000000000000        0.0000000000000000     
   0.0000000000000000       0.62500000000000011        0.0000000000000000     
  -9.9999999999999982       0.78124999999999989        0.0000000000000000     
  -7.5000000000000000       0.78125000000000011        0.0000000000000000     
  -5.0000000000000009       0.78125000000000011        0.0000000000000000     
  -2.4999999999999996       0.78125000000000000        0.0000000000000000     
   0.0000000000000000       0.78124999999999989        0.0000000000000000     
  -10.000000000000000       0.93749999999999989        0.0000000000000000     
  -7.4999999999999991       0.93749999999999989        0.0000000000000000     
  -5.0000000000000000       0.93750000000000000        0.0000000000000000     
  -2.5000000000000000       0.93749999999999989        0.0000000000000000     
   0.0000000000000000       0.93749999999999989        0.0000000000000000     
  -10.000000000000000        1.0937499999999998        0.0000000000000000     
  -7.5000000000000000        1.0937500000000000        0.0000000000000000     
  -5.0000000000000009        1.0937500000000004        0.0000000000000000     
  -2.5000000000000000        1.0937500000000000        0.0000000000000000     
   0.0000000000000000        1.0937499999999998        0.0000000000000000     
  -10.000000000000004        1.2500000000000002        0.0000000000000000     
  -7.5000000000000000        1.2500000000000000        0.0000000000000000     
  -4.9999999999999991        1.2499999999999998        0.0000000000000000     
  -2.5000000000000000        1.2500000000000002        0.0000000000000000     
   0.0000000000000000        1.2500000000000002        0.0000000000000000     
  -10.000000000000004        1.2500000000000002        0.0000000000000000     
  -7.5000000000000000        1.2500000000000000        0.0000000000000000     
  -4.9999999999999991        1.2499999999999998        0.0000000000000000     
  -2.5000000000000000        1.2500000000000002        0.0000000000000000     
   0.0000000000000000        1.2500000000000002        0.0000000000000000     
  -9.9999999999999982        1.4062499999999998        0.0000000000000000     
  -7.4999999999999991        1.4062500000000000        0.0000000000000000     
  -5.0000000000000009        1.4062500000000002        0.0000000000000000     
  -2.5000000000000000        1.4062500000000000        0.0000000000000000     
   0.0000000000000000        1.4062499999999998        0.0000000000000000     
  -10.000000000000002        1.5625000000000002        0.0000000000000000     
  -7.4999999999999982        1.5624999999999998        0.0000000000000000     
  -5.0000000000000009        1.5625000000000004        0.0000000000000000     
  -2.5000000000000004        1.5625000000000000        0.0000000000000000     
   0.0000000000000000        1.5625000000000002        0.0000000000000000     
  -10.000000000000002        1.7187500000000002        0.0000000000000000     
  -7.5000000000000000        1.7187500000000000        0.0000000000000000     
  -4.9999999999999982        1.7187500000000000        0.0000000000000000     
  -2.4999999999999996        1.7187500000000002        0.0000000000000000     
   0.0000000000000000        1.7187500000000002        0.0000000000000000     
  -10.000000000000004        1.8750000000000004        0.0000000000000000     
  -7.5000000000000000        1.8750000000000000        0.0000000000000000     
  -4.9999999999999991        1.8750000000000000        0.0000000000000000     
  -2.5000000000000000        1.8750000000000002        0.0000000000000000     
   0.0000000000000000        1.8750000000000004        0.0000000000000000     
  -10.000000000000004        1.8750000000000004        0.0000000000000000     
  -7.5000000000000000        1.8750000000000000        0.0000000000000000     
  -4.9999999999999991        1.8750000000000000        0.0000000000000000     
  -2.5000000000000000        1.8750000000000002        0.0000000000000000     
   0.0000000000000000        1.8750000000000004        0.0000000000000000     
  -9.9999999999999982        2.0312500000000000        0.0000000000000000     
  -7.4999999999999991        2.0312500000000000        0.0000000000000000     
  -5.0000000000000009        2.0312500000000004        0.0000000000000000     
  -2.5000000000000000        2.0312500000000000        0.0000000000000000     
   0.0000000000000000        2.0312500000000000        0.0000000000000000     
  -10.000000000000002        2.1875000000000004        0.0000000000000000     
  -7.4999999999999982        2.1874999999999996        0.0000000000000000     
  -5.0000000000000009        2.1875000000000004        0.0000000000000000     
  -2.5000000000000004        2.1875000000000004        0.0000000000000000     
   0.0000000000000000        2.1875000000000004        0.0000000000000000     
  -10.000000000000002        2.3437500000000004        0.0000000000000000     
  -7.5000000000000000        2.3437500000000000        0.0000000000000000     
  -4.9999999999999982        2.3437499999999996        0.0000000000000000     
  -2.4999999999999996        2.3437500000000004        0.0000000000000000     
   0.0000000000000000        2.3437500000000004        0.0000000000000000     
  -10.000000000000004        2.5000000000000004        0.0000000000000000     
  -7.5000000000000000        2.5000000000000000        0.0000000000000000     
  -4.9999999999999991        2.5000000000000000        0.0000000000000000     
  -2.5000000000000000        2.5000000000000000        0.0000000000000000     
   0.0000000000000000        2.5000000000000004        0.0000000000000000     
  -10.000000000000004        2.5000000000000004        0.0000000000000000     
  -7.5000000000000000        2.5000000000000000        0.0000000000000000     
  -4.9999999999999991        2.5000000000000000        0.0000000000000000     
  -2.5000000000000000        2.5000000000000000        0.0000000000000000     
   0.0000000000000000        2.5000000000000004        0.0000000000000000     
  -9.9999999999999982        2.6562500000000000        0.0000000000000000     
  -7.4999999999999991        2.6562500000000000        0.0000000000000000     
  -5.0000000000000009        2.6562500000000004        0.0000000000000000     
  -2.5000000000000000        2.6562500000000000        0.0000000000000000     
   0.0000000000000000        2.6562500000000000        0.0000000000000000     
  -10.000000000000002        2.8125000000000004        0.0000000000000000     
  -7.4999999999999982        2.8124999999999996        0.0000000000000000     
  -5.0000000000000009        2.8125000000000004        0.0000000000000000     
  -2.5000000000000004        2.8125000000000000        0.0000000000000000     
   0.0000000000000000        2.8125000000000004        0.0000000000000000     
  -10.000000000000002        2.9687500000000000        0.0000000000000000     
  -7.5000000000000000        2.9687499999999996        0.0000000000000000     
  -4.9999999999999982        2.9687500000000000        0.0000000000000000     
  -2.4999999999999996        2.9687500000000004        0.0000000000000000     
   0.0000000000000000        2.9687500000000000        0.0000000000000000     
  -10.000000000000004        3.1250000000000000        0.0000000000000000     
  -7.5000000000000000        3.1250000000000000        0.0000000000000000     
  -4.9999999999999991        3.1250000000000000        0.0000000000000000     
[...]
 <PointData>
 <DataArray  type="Float64" Name="disp" NumberOfComponents="3" format="ascii">
   0.0000000000000000        0.0000000000000000        0.0000000000000000     
  -2.6357787074555796E-002  -1.5750216087910707E-002   0.0000000000000000     
  -2.6076436565846139E-002  -5.8128720946349383E-002   0.0000000000000000     
  -1.0859048634304619E-002  -7.1464263956126858E-002   0.0000000000000000     
   7.5912765596351881E-003  -8.5594498053944909E-005   0.0000000000000000     
   0.0000000000000000        0.0000000000000000        0.0000000000000000     
  -2.3481043631447020E-002  -1.6491094889863316E-002   0.0000000000000000     
  -2.4031292579912794E-002  -5.8363993978692200E-002   0.0000000000000000     
  -1.2402981529610184E-002  -7.1278182779663718E-002   0.0000000000000000     
   6.5165483524794307E-004  -8.9314680595489878E-004   0.0000000000000000     
   0.0000000000000000        0.0000000000000000        0.0000000000000000     
  -2.0128623826033431E-002  -1.7772780453793387E-002   0.0000000000000000     
  -2.2661414251291419E-002  -5.8574536945766302E-002   0.0000000000000000     
  -1.4411409844907214E-002  -7.0820775360360383E-002   0.0000000000000000     
  -2.1916491760140913E-003  -2.9270015820173265E-003   0.0000000000000000     
   0.0000000000000000        0.0000000000000000        0.0000000000000000     
  -1.6759958640500887E-002  -1.9160227965374560E-002   0.0000000000000000     
  -2.1702035754765335E-002  -5.8616110148026604E-002   0.0000000000000000     
  -1.6522615220896455E-002  -7.0181585984892825E-002   0.0000000000000000     
  -2.9180809169973578E-003  -5.6705949129098633E-003   0.0000000000000000     
   0.0000000000000000        0.0000000000000000        0.0000000000000000     
  -1.3834479057035257E-002  -2.0218392610280495E-002   0.0000000000000000     
  -2.0888391265117885E-002  -5.8344473885928096E-002   0.0000000000000000     
  -1.8374879298278635E-002  -6.9450158939936932E-002   0.0000000000000000     
  -3.5070858305482995E-003  -8.6073628853011487E-003   0.0000000000000000     
   0.0000000000000000        0.0000000000000000        0.0000000000000000     
  -1.3834479057035257E-002  -2.0218392610280495E-002   0.0000000000000000     
  -2.0888391265117885E-002  -5.8344473885928096E-002   0.0000000000000000     
  -1.8374879298278635E-002  -6.9450158939936932E-002   0.0000000000000000     
  -3.5070858305482995E-003  -8.6073628853011487E-003   0.0000000000000000     
   0.0000000000000000        0.0000000000000000        0.0000000000000000     
  -1.1681962751853094E-002  -2.0639165812609543E-002   0.0000000000000000     
  -2.0014342482222225E-002  -5.7668343827747749E-002   0.0000000000000000     
  -1.9706657863030313E-002  -6.8693290032041887E-002   0.0000000000000000     
  -5.4684275662002990E-003  -1.1319760412119326E-002   0.0000000000000000     
   0.0000000000000000        0.0000000000000000        0.0000000000000000     
  -1.0113574177293722E-002  -2.0622183950158829E-002   0.0000000000000000     
  -1.9108261206310879E-002  -5.6708257113050581E-002   0.0000000000000000     
  -2.0657103282231217E-002  -6.7886781147249692E-002   0.0000000000000000     
  -8.4331426002345142E-003  -1.3786317711330598E-002   0.0000000000000000     
   0.0000000000000000        0.0000000000000000        0.0000000000000000     
  -8.8108244797271713E-003  -2.0494019639150162E-002   0.0000000000000000     
  -1.8257146762706220E-002  -5.5637706249223741E-002   0.0000000000000000     
  -2.1465542068236917E-002  -6.6983685691475586E-002   0.0000000000000000     
  -1.1562585615619039E-002  -1.6084583827160669E-002   0.0000000000000000     
   0.0000000000000000        0.0000000000000000        0.0000000000000000     
  -7.4552248055234586E-003  -2.0581245495805398E-002   0.0000000000000000     
  -1.7547998476730622E-002  -5.4630183743654276E-002   0.0000000000000000     
  -2.2371300733402967E-002  -6.5937057070634825E-002   0.0000000000000000     
  -1.4018111295321972E-002  -1.8292107803835254E-002   0.0000000000000000     
   0.0000000000000000        0.0000000000000000        0.0000000000000000     
  -7.4552248055234586E-003  -2.0581245495805398E-002   0.0000000000000000     
  -1.7547998476730622E-002  -5.4630183743654276E-002   0.0000000000000000     
  -2.2371300733402967E-002  -6.5937057070634825E-002   0.0000000000000000     
  -1.4018111295321972E-002  -1.8292107803835254E-002   0.0000000000000000     
   0.0000000000000000        0.0000000000000000        0.0000000000000000     
  -5.8196774784175561E-003  -2.1145453701773408E-002   0.0000000000000000     
  -1.7042146713387572E-002  -5.3821322057142115E-002   0.0000000000000000     
  -2.3547903106357657E-002  -6.4708029920732435E-002   0.0000000000000000     
  -1.5217442058775413E-002  -2.0486002147170741E-002   0.0000000000000000     
   0.0000000000000000        0.0000000000000000        0.0000000000000000     
  -4.0426495316042222E-003  -2.2188314700411296E-002   0.0000000000000000     
  -1.6698245996405004E-002  -5.3195313464138416E-002   0.0000000000000000     
  -2.4905662280820164E-002  -6.3290063798132914E-002   0.0000000000000000     
  -1.5603771271267530E-002  -2.2741633209346305E-002   0.0000000000000000     
   0.0000000000000000        0.0000000000000000        0.0000000000000000     
  -2.3539991756431561E-003  -2.3646518500503252E-002   0.0000000000000000     
  -1.6449281889191977E-002  -5.2698490192507198E-002   0.0000000000000000     
  -2.6289088666782430E-002  -6.1684699489290500E-002   0.0000000000000000     
  -1.5876660034550474E-002  -2.5133930804131795E-002   0.0000000000000000     
   0.0000000000000000        0.0000000000000000        0.0000000000000000     
  -9.8358462109406943E-004  -2.5456755110833444E-002   0.0000000000000000     
  -1.6228239955157556E-002  -5.2277184470112467E-002   0.0000000000000000     
  -2.7542692674236376E-002  -5.9893477780659538E-002   0.0000000000000000     
  -1.6735669450376418E-002  -2.7737824745297061E-002   0.0000000000000000     
   0.0000000000000000        0.0000000000000000        0.0000000000000000     
  -9.8358462109406943E-004  -2.5456755110833444E-002   0.0000000000000000     
  -1.6228239955157556E-002  -5.2277184470112467E-002   0.0000000000000000     
  -2.7542692674236376E-002  -5.9893477780659538E-002   0.0000000000000000     
  -1.6735669450376418E-002  -2.7737824745297061E-002   0.0000000000000000     
   0.0000000000000000        0.0000000000000000        0.0000000000000000     
  -9.4266237861961161E-005  -2.7538980224037304E-002   0.0000000000000000     
  -1.5989920599415425E-002  -5.1872892902831917E-002   0.0000000000000000     
  -2.8554384936290894E-002  -5.7924010168587135E-002   0.0000000000000000     
  -1.8655081100118882E-002  -3.0614604153506260E-002   0.0000000000000000     
   0.0000000000000000        0.0000000000000000        0.0000000000000000     
   4.1908696676696926E-004  -2.9746212268155273E-002   0.0000000000000000     
  -1.5776383593897696E-002  -5.1407769608598136E-002   0.0000000000000000     
  -2.9385676978522724E-002  -5.5808190988992090E-002   0.0000000000000000     
  -2.1208058483636823E-002  -3.3770995377000734E-002   0.0000000000000000     
   0.0000000000000000        0.0000000000000000        0.0000000000000000     
   7.2860382616122654E-004  -3.1914735355079070E-002   0.0000000000000000     
  -1.5651503552241149E-002  -5.0799133083357366E-002   0.0000000000000000     
  -3.0141480549625590E-002  -5.3583985287686015E-002   0.0000000000000000     
  -2.3742485580410536E-002  -3.7200084070916087E-002   0.0000000000000000     
   0.0000000000000000        0.0000000000000000        0.0000000000000000     
   1.0064131736893097E-003  -3.3880833596700376E-002   0.0000000000000000     
  -1.5679155088082538E-002  -4.9964301823055966E-002   0.0000000000000000     
  -3.0926707398293205E-002  -5.1289358110480562E-002   0.0000000000000000     
  -2.5606246369920330E-002  -4.0894955890387948E-002   0.0000000000000000     
   0.0000000000000000        0.0000000000000000        0.0000000000000000     
   1.0064131736893097E-003  -3.3880833596700376E-002   0.0000000000000000     
  -1.5679155088082538E-002  -4.9964301823055966E-002   0.0000000000000000     
  -3.0926707398293205E-002  -5.1289358110480562E-002   0.0000000000000000     
  -2.5606246369920330E-002  -4.0894955890387948E-002   0.0000000000000000     
   0.0000000000000000        0.0000000000000000        0.0000000000000000     
   1.3601099310675212E-003  -3.5536898076144546E-002   0.0000000000000000     
  -1.5894387475023253E-002  -4.8858869224106996E-002   0.0000000000000000     
  -3.1797502319508821E-002  -4.8956145959318575E-002   0.0000000000000000     
  -2.6383244703625661E-002  -4.4818960797210580E-002   0.0000000000000000     
   0.0000000000000000        0.0000000000000000        0.0000000000000000     
   1.6391533734033722E-003  -3.6999747761471476E-002   0.0000000000000000     
  -1.6216948626523217E-002  -4.7591528284790699E-002   0.0000000000000000     
  -3.2614942293413850E-002  -4.6591671160667737E-002   0.0000000000000000     
  -2.6601463920902613E-002  -4.8816505979812720E-002   0.0000000000000000     
   0.0000000000000000        0.0000000000000000        0.0000000000000000     
   1.6284688641521707E-003  -3.8442308591974721E-002   0.0000000000000000     
  -1.6537761116006980E-002  -4.6309246903854170E-002   0.0000000000000000     
  -3.3191337346439254E-002  -4.4197127497126940E-002   0.0000000000000000     
  -2.7024907233106396E-002  -5.2702262933281695E-002   0.0000000000000000     
   0.0000000000000000        0.0000000000000000        0.0000000000000000     
   1.1129817667692235E-003  -4.0037506506947818E-002   0.0000000000000000     
  -1.6747747516899104E-002  -4.5158992980044464E-002   0.0000000000000000     
  -3.3338997505015941E-002  -4.1773708751295109E-002   0.0000000000000000     
  -2.8417577851592234E-002  -5.6290903152704866E-002   0.0000000000000000     
   0.0000000000000000        0.0000000000000000        0.0000000000000000     
   1.1129817667692235E-003  -4.0037506506947818E-002   0.0000000000000000     
  -1.6747747516899104E-002  -4.5158992980044464E-002   0.0000000000000000     
  -3.3338997505015941E-002  -4.1773708751295109E-002   0.0000000000000000     
  -2.8417577851592234E-002  -5.6290903152704866E-002   0.0000000000000000     
   0.0000000000000000        0.0000000000000000        0.0000000000000000     
  -1.7734196388494378E-006  -4.1917864407803623E-002   0.0000000000000000     
  -1.6777434880247147E-002  -4.4250675936320608E-002   0.0000000000000000     
  -3.2972848465791550E-002  -3.9322926997214833E-002   0.0000000000000000     
  -3.1233878260238688E-002  -5.9459110002150213E-002   0.0000000000000000     
   0.0000000000000000        0.0000000000000000        0.0000000000000000     
  -1.3278256533602142E-003  -4.4054293044432230E-002   0.0000000000000000     
  -1.6715768167590680E-002  -4.3545971292489223E-002   0.0000000000000000     
  -3.2418278606280222E-002  -3.6847567474703649E-002   0.0000000000000000     
  -3.4689808033017702E-002  -6.2331614321608192E-002   0.0000000000000000     
   0.0000000000000000        0.0000000000000000        0.0000000000000000     
  -2.3565947570317225E-003  -4.6377300128843016E-002   0.0000000000000000     
  -1.6691296818092276E-002  -4.2969496092568907E-002   0.0000000000000000     
  -3.2103291974212821E-002  -3.4350733715022785E-002   0.0000000000000000     
  -3.7691766016424516E-002  -6.5095158820049834E-002   0.0000000000000000     
   0.0000000000000000        0.0000000000000000        0.0000000000000000     
  -2.5795005532902294E-003  -4.8817393373045387E-002   0.0000000000000000     
  -1.6832570270914518E-002  -4.2445867380578234E-002   0.0000000000000000     
  -3.2455892617320153E-002  -3.1835529249433531E-002   0.0000000000000000     
  -3.9146151056954404E-002  -6.7936486206446212E-002   0.0000000000000000     
   0.0000000000000000        0.0000000000000000        0.0000000000000000     
  -2.5795005532902294E-003  -4.8817393373045387E-002   0.0000000000000000     
  -1.6832570270914518E-002  -4.2445867380578234E-002   0.0000000000000000     
  -3.2455892617320153E-002  -3.1835529249433531E-002   0.0000000000000000     
  -3.9146151056954404E-002  -6.7936486206446212E-002   0.0000000000000000     
   0.0000000000000000        0.0000000000000000        0.0000000000000000     
  -1.6760381437841182E-003  -5.1314131563529639E-002   0.0000000000000000     
  -1.7219291989714999E-002  -4.1899738659889198E-002   0.0000000000000000     
  -3.3746829489575046E-002  -2.9302087440602601E-002   0.0000000000000000     
  -3.8375718595146616E-002  -7.1066444057193728E-002   0.0000000000000000     
   0.0000000000000000        0.0000000000000000        0.0000000000000000     
  -7.8003746207899499E-005  -5.3843277784709744E-002   0.0000000000000000     
  -1.7735781536131440E-002  -4.1255909271287416E-002   0.0000000000000000     
  -3.5617831169918360E-002  -2.6738660976818950E-002   0.0000000000000000     
  -3.6368650447716415E-002  -7.4792299418390301E-002   0.0000000000000000     
   0.0000000000000000        0.0000000000000000        0.0000000000000000     
   1.5947311427323885E-003  -5.6389646195480640E-002   0.0000000000000000     
  -1.8217512496296565E-002  -4.0439215014911919E-002   0.0000000000000000     
  -3.7553371143532993E-002  -2.4130532377777049E-002   0.0000000000000000     
  -3.4529485025423051E-002  -7.9445424203559156E-002   0.0000000000000000     
   0.0000000000000000        0.0000000000000000        0.0000000000000000     
   2.7222950263307115E-003  -5.8938050954737163E-002   0.0000000000000000     
  -1.8499958456343110E-002  -3.9374491690901743E-002   0.0000000000000000     
  -3.9037922895601825E-002  -2.1462984163171332E-002   0.0000000000000000     
  -3.4262760739025760E-002  -8.5357190326223492E-002   0.0000000000000000     
   0.0000000000000000        0.0000000000000000        0.0000000000000000     
   2.7222950263307115E-003  -5.8938050954737163E-002   0.0000000000000000     
  -1.8499958456343110E-002  -3.9374491690901743E-002   0.0000000000000000     
  -3.9037922895601825E-002  -2.1462984163171332E-002   0.0000000000000000     
  -3.4262760739025760E-002  -8.5357190326223492E-002   0.0000000000000000     
   0.0000000000000000        0.0000000000000000        0.0000000000000000     
   2.8983358585540934E-003  -6.1401704133515977E-002   0.0000000000000000     
  -1.8503483094624573E-002  -3.8029669960112172E-002   0.0000000000000000     
  -3.9716110920134905E-002  -1.8778335661268918E-002   0.0000000000000000     
  -3.6250201678575754E-002  -9.2542139418466465E-002   0.0000000000000000     
   0.0000000000000000        0.0000000000000000        0.0000000000000000     
   2.5705793960618308E-003  -6.3407409451420482E-002   0.0000000000000000     
  -1.8488010458377512E-002  -3.6545059926263557E-002   0.0000000000000000     
  -3.9873163746451119E-002  -1.6347053434627522E-002   0.0000000000000000     
  -3.8282274651292046E-002  -9.9747491986610634E-002   0.0000000000000000     
   0.0000000000000000        0.0000000000000000        0.0000000000000000     
   2.4002708461862894E-003  -6.4510368540195817E-002   0.0000000000000000     
  -1.8798354687059222E-002  -3.5104066553792480E-002   0.0000000000000000     
  -3.9954460912696534E-002  -1.4496640854377494E-002   0.0000000000000000     
  -3.7426632143685593E-002 -0.10540363825553839        0.0000000000000000     
   0.0000000000000000        0.0000000000000000        0.0000000000000000     
   3.0486554162598260E-003  -6.4265783031587170E-002   0.0000000000000000     
  -1.9779329920127018E-002  -3.3890094807135548E-002   0.0000000000000000     
  -4.0405381957017213E-002  -1.3554601291649211E-002   0.0000000000000000     
  -3.0750926642267383E-002 -0.10794096845013221        0.0000000000000000     
 </DataArray>
 </PointData>
 </Piece>
 <Piece  NumberOfPoints="           200 "  NumberOfCells="          128 ">
 <Points>
 <DataArray  type="Float64" NumberOfComponents="3"  format="ascii" >
   0.0000000000000000        0.0000000000000000        0.0000000000000000     
   2.5000000000000000        0.0000000000000000        0.0000000000000000     
   5.0000000000000000        0.0000000000000000        0.0000000000000000     
   7.5000000000000000        0.0000000000000000        0.0000000000000000     
   10.000000000000000        0.0000000000000000        0.0000000000000000     
   0.0000000000000000       0.15625000000000000        0.0000000000000000     
   2.5000000000000000       0.15625000000000000        0.0000000000000000     
   5.0000000000000000       0.15624999999999997        0.0000000000000000     
   7.5000000000000000       0.15625000000000003        0.0000000000000000     
   10.000000000000000       0.15625000000000000        0.0000000000000000     
   0.0000000000000000       0.31250000000000006        0.0000000000000000     
   2.5000000000000000       0.31250000000000000        0.0000000000000000     
   5.0000000000000000       0.31250000000000006        0.0000000000000000     
   7.4999999999999982       0.31249999999999994        0.0000000000000000     
   10.000000000000000       0.31250000000000006        0.0000000000000000     
   0.0000000000000000       0.46875000000000000        0.0000000000000000     
   2.5000000000000000       0.46875000000000000        0.0000000000000000     
   5.0000000000000000       0.46875000000000000        0.0000000000000000     
   7.5000000000000000       0.46875000000000000        0.0000000000000000     
   10.000000000000000       0.46875000000000000        0.0000000000000000     
   0.0000000000000000       0.62500000000000011        0.0000000000000000     
   2.5000000000000000       0.62500000000000000        0.0000000000000000     
   5.0000000000000009       0.62500000000000000        0.0000000000000000     
   7.4999999999999991       0.62500000000000000        0.0000000000000000     
   10.000000000000000       0.62500000000000011        0.0000000000000000     
   0.0000000000000000       0.62500000000000011        0.0000000000000000     
   2.5000000000000000       0.62500000000000000        0.0000000000000000     
   5.0000000000000009       0.62500000000000000        0.0000000000000000     
   7.4999999999999991       0.62500000000000000        0.0000000000000000     
   10.000000000000000       0.62500000000000011        0.0000000000000000     
   0.0000000000000000       0.78124999999999989        0.0000000000000000     
   2.5000000000000000       0.78125000000000011        0.0000000000000000     
   5.0000000000000009       0.78125000000000011        0.0000000000000000     
   7.5000000000000000       0.78125000000000000        0.0000000000000000     
   9.9999999999999982       0.78124999999999989        0.0000000000000000     
   0.0000000000000000       0.93749999999999989        0.0000000000000000     
   2.5000000000000000       0.93749999999999989        0.0000000000000000     
   5.0000000000000000       0.93750000000000000        0.0000000000000000     
   7.4999999999999991       0.93749999999999989        0.0000000000000000     
   10.000000000000000       0.93749999999999989        0.0000000000000000     
   0.0000000000000000        1.0937499999999998        0.0000000000000000     
   2.5000000000000000        1.0937500000000000        0.0000000000000000     
   5.0000000000000009        1.0937500000000004        0.0000000000000000     
   7.5000000000000000        1.0937500000000000        0.0000000000000000     
   10.000000000000000        1.0937499999999998        0.0000000000000000     
   0.0000000000000000        1.2500000000000002        0.0000000000000000     
   2.4999999999999996        1.2500000000000000        0.0000000000000000     
   4.9999999999999991        1.2499999999999998        0.0000000000000000     
   7.5000000000000009        1.2500000000000002        0.0000000000000000     