 <VTKFile type="UnstructuredGrid"  version="0.1"   >
 <UnstructuredGrid>
 <Piece  NumberOfPoints="           200 "  NumberOfCells="          128 ">
 <Points>
 <DataArray  type="Float64" NumberOfComponents="3"  format="ascii" >
  -10.000000000000000        0.0000000000000000        0.0000000000000000     
  -7.5000000000000000        0.0000000000000000        0.0000000000000000     
  -5.0000000000000000        0.0000000000000000        0.0000000000000000     
  -2.4999999999999996        0.0000000000000000        0.0000000000000000     
   0.0000000000000000        0.0000000000000000        0.0000000000000000     
  -10.000000000000000       0.15625000000000000        0.0000000000000000     
  -7.5000000000000000       0.15625000000000000        0.0000000000000000     
  -5.0000000000000000       0.15624999999999997        0.0000000000000000     
  -2.5000000000000000       0.15625000000000003        0.0000000000000000     
   0.0000000000000000       0.15625000000000000        0.0000000000000000     
  -10.000000000000000       0.31250000000000006        0.0000000000000000     
  -7.5000000000000000       0.31250000000000000        0.0000000000000000     
  -5.0000000000000000       0.31250000000000006        0.0000000000000000     
  -2.4999999999999996       0.31249999999999994        0.0000000000000000     
   0.0000000000000000       0.31250000000000006        0.0000000000000000     
  -10.000000000000000       0.46875000000000000        0.0000000000000000     
  -7.5000000000000000       0.46875000000000000        0.0000000000000000     
  -5.0000000000000000       0.46875000000000000        0.0000000000000000     
  -2.4999999999999996       0.46875000000000000        0.0000000000000000     
   0.0000000000000000       0.46875000000000000        0.0000000000000000     
  -10.000000000000000       0.62500000000000011        0.0000000000000000     
  -7.5000000000000000       0.62500000000000000        0.0000000000000000     
  -5.0000000000000009       0.62500000000000000        0.0000000000000000     
  -2.4999999999999996       0.62500000000000000        0.0000000000000000     
   0.0000000000000000       0.62500000000000011        0.0000000000000000     
  -10.000000000000000       0.62500000000000011        0.0000000000000000     
  -7.5000000000000000       0.62500000000000000        0.0000000000000000     
  -5.0000000000000009       0.62500000000000000        0.0000000000000000     
  -2.4999999999999996       0.62500000000000000        0.0000000000000000     
   0.0000000000000000       0.62500000000000011        0.0000000000000000     
  -9.9999999999999982       0.78124999999999989        0.0000000000000000     
  -7.5000000000000000       0.78125000000000011        0.0000000000000000     
  -5.0000000000000009       0.78125000000000011        0.0000000000000000     
  -2.4999999999999996       0.78125000000000000        0.0000000000000000     
   0.0000000000000000       0.78124999999999989        0.0000000000000000     
  -10.000000000000000       0.93749999999999989        0.0000000000000000     
  -7.4999999999999991       0.93749999999999989        0.0000000000000000     
  -5.0000000000000000       0.93750000000000000        0.0000000000000000     
  -2.5000000000000000       0.93749999999999989        0.0000000000000000     
   0.0000000000000000       0.93749999999999989        0.0000000000000000     
  -10.000000000000000        1.0937499999999998        0.0000000000000000     
  -7.5000000000000000        1.0937500000000000        0.0000000000000000     
  -5.0000000000000009        1.0937500000000004        0.0000000000000000     
  -2.5000000000000000        1.0937500000000000        0.0000000000000000     
   0.0000000000000000        1.0937499999999998        0.0000000000000000     
  -10.000000000000004        1.2500000000000002        0.0000000000000000     
  -7.5000000000000000        1.2500000000000000        0.0000000000000000     
  -4.9999999999999991        1.2499999999999998        0.0000000000000000     
  -2.5000000000000000        1.2500000000000002        0.0000000000000000     
   0.0000000000000000        1.2500000000000002        0.0000000000000000     
  -10.000000000000004        1.2500000000000002        0.0000000000000000     
  -7.5000000000000000        1.2500000000000000        0.0000000000000000     
  -4.9999999999999991        1.2499999999999998        0.0000000000000000     
  -2.5000000000000000        1.2500000000000002        0.0000000000000000     
   0.0000000000000000        1.2500000000000002        0.0000000000000000     
  -9.9999999999999982        1.4062499999999998        0.0000000000000000     
  -7.4999999999999991        1.4062500000000000        0.0000000000000000     
  -5.0000000000000009        1.4062500000000002        0.0000000000000000     
  -2.5000000000000000        1.4062500000000000        0.0000000000000000     
   0.0000000000000000        1.4062499999999998        0.0000000000000000     
  -10.000000000000002        1.5625000000000002        0.0000000000000000     
  -7.4999999999999982        1.5624999999999998        0.0000000000000000     
  -5.0000000000000009        1.5625000000000004        0.0000000000000000     
  -2.5000000000000004        1.5625000000000000        0.0000000000000000     
   0.0000000000000000        1.5625000000000002        0.0000000000000000     
  -10.000000000000002        1.7187500000000002        0.0000000000000000     
  -7.5000000000000000        1.7187500000000000        0.0000000000000000     
  -4.9999999999999982        1.7187500000000000        0.0000000000000000     
  -2.4999999999999996        1.7187500000000002        0.0000000000000000     
   0.0000000000000000        1.7187500000000002        0.0000000000000000     
  -10.000000000000004        1.8750000000000004        0.0000000000000000     
  -7.5000000000000000        1.8750000000000000        0.0000000000000000     
  -4.9999999999999991        1.8750000000000000        0.0000000000000000     
  -2.5000000000000000        1.8750000000000002        0.0000000000000000     
   0.0000000000000000        1.8750000000000004        0.0000000000000000     
  -10.000000000000004        1.8750000000000004        0.0000000000000000     
  -7.5000000000000000        1.8750000000000000        0.0000000000000000     
  -4.9999999999999991        1.8750000000000000        0.0000000000000000     
  -2.5000000000000000        1.8750000000000002        0.0000000000000000     
   0.0000000000000000        1.8750000000000004        0.0000000000000000     
  -9.9999999999999982        2.0312500000000000        0.0000000000000000     
  -7.4999999999999991        2.0312500000000000        0.0000000000000000     
  -5.0000000000000009        2.0312500000000004        0.0000000000000000     
  -2.5000000000000000        2.0312500000000000        0.0000000000000000     
   0.0000000000000000        2.0312500000000000        0.0000000000000000     
  -10.000000000000002        2.1875000000000004        0.0000000000000000     
  -7.4999999999999982        2.1874999999999996        0.0000000000000000     
  -5.0000000000000009        2.1875000000000004        0.0000000000000000     
  -2.5000000000000004        2.1875000000000004        0.0000000000000000     
   0.0000000000000000        2.1875000000000004        0.0000000000000000     
  -10.000000000000002        2.3437500000000004        0.0000000000000000     
  -7.5000000000000000        2.3437500000000000        0.0000000000000000     
  -4.9999999999999982        2.3437499999999996        0.0000000000000000     
  -2.4999999999999996        2.3437500000000004        0.0000000000000000     
   0.0000000000000000        2.3437500000000004        0.0000000000000000     
  -10.000000000000004        2.5000000000000004        0.0000000000000000     
  -7.5000000000000000        2.5000000000000000        0.0000000000000000     
  -4.9999999999999991        2.5000000000000000        0.0000000000000000     
  -2.5000000000000000        2.5000000000000000        0.0000000000000000     
   0.0000000000000000        2.5000000000000004        0.0000000000000000     
  -10.000000000000004        2.5000000000000004        0.0000000000000000     
  -7.5000000000000000        2.5000000000000000        0.0000000000000000     
  -4.9999999999999991        2.5000000000000000        0.0000000000000000     
  -2.5000000000000000        2.5000000000000000        0.0000000000000000     
   0.0000000000000000        2.5000000000000004        0.0000000000000000     
  -9.9999999999999982        2.6562500000000000        0.0000000000000000     
  -7.4999999999999991        2.6562500000000000        0.0000000000000000     
  -5.0000000000000009        2.6562500000000004        0.0000000000000000     
  -2.5000000000000000        2.6562500000000000        0.0000000000000000     
   0.0000000000000000        2.6562500000000000        0.0000000000000000     
  -10.000000000000002        2.8125000000000004        0.0000000000000000     
  -7.4999999999999982        2.8124999999999996        0.0000000000000000     
  -5.0000000000000009        2.8125000000000004        0.0000000000000000     
  -2.5000000000000004        2.8125000000000000        0.0000000000000000     
   0.0000000000000000        2.8125000000000004        0.0000000000000000     
  -10.000000000000002        2.9687500000000000        0.0000000000000000     
  -7.5000000000000000        2.9687499999999996        0.0000000000000000     
  -4.9999999999999982        2.9687500000000000        0.0000000000000000     
  -2.4999999999999996        2.9687500000000004        0.0000000000000000     
   0.0000000000000000        2.9687500000000000        0.0000000000000000     
  -10.000000000000004        3.1250000000000000        0.0000000000000000     
  -7.5000000000000000        3.1250000000000000        0.0000000000000000     
  -4.9999999999999991        3.1250000000000000        0.0000000000000000     
[...]
 <PointData>
 <DataArray  type="Float64" Name="disp" NumberOfComponents="3" format="ascii">
   0.0000000000000000        0.0000000000000000        0.0000000000000000     
  -4.5391736496666851E-004   1.7330908763593491E-003   0.0000000000000000     
   8.9036970918062895E-004   6.0450530795283534E-003   0.0000000000000000     
   1.5901658534691861E-006   2.3750928019925233E-003   0.0000000000000000     
  -7.1515270515365688E-003  -1.9837583763762632E-002   0.0000000000000000     
   0.0000000000000000        0.0000000000000000        0.0000000000000000     
  -5.3652619814098935E-004   4.2785848733979072E-003   0.0000000000000000     
   7.2431633161467042E-004   3.3757981370065165E-003   0.0000000000000000     
   1.5620304283814852E-004   1.6533400953050905E-003   0.0000000000000000     
  -5.8671906108993871E-003   3.4729110527728906E-003   0.0000000000000000     
   0.0000000000000000        0.0000000000000000        0.0000000000000000     
  -3.9525085580381430E-004   4.7716306924985045E-003   0.0000000000000000     
   5.4342468889845459E-004   2.5700421444106590E-003   0.0000000000000000     
  -1.6141579572365354E-005   1.5084542571560176E-003   0.0000000000000000     
  -4.9061178748954458E-003   9.7000869321541318E-003   0.0000000000000000     
   0.0000000000000000        0.0000000000000000        0.0000000000000000     
  -1.4994584264085758E-004   4.0941703830599746E-003   0.0000000000000000     
   3.7447916599783721E-004   2.8449548381623752E-003   0.0000000000000000     
  -3.2776723370611183E-004   1.7219260591317277E-003   0.0000000000000000     
  -4.1577273013748998E-003   6.1946567397925673E-003   0.0000000000000000     
   0.0000000000000000        0.0000000000000000        0.0000000000000000     
   7.9534336662166977E-005   3.1281459944811590E-003   0.0000000000000000     
   2.4426414787867600E-004   3.4177059546832578E-003   0.0000000000000000     
  -5.9099745189113129E-004   2.0752462728186477E-003   0.0000000000000000     
  -3.5114373481879135E-003   3.0733334109968140E-004   0.0000000000000000     
   0.0000000000000000        0.0000000000000000        0.0000000000000000     
   7.9534336662166977E-005   3.1281459944811590E-003   0.0000000000000000     
   2.4426414787867600E-004   3.4177059546832578E-003   0.0000000000000000     
  -5.9099745189113129E-004   2.0752462728186477E-003   0.0000000000000000     
  -3.5114373481879135E-003   3.0733334109968140E-004   0.0000000000000000     
   0.0000000000000000        0.0000000000000000        0.0000000000000000     
   2.0196246509660433E-004   2.5818280406122831E-003   0.0000000000000000     
   1.7173751011559667E-004   3.6662087196497606E-003   0.0000000000000000     
  -6.6542445104579660E-004   2.3869620876092075E-003   0.0000000000000000     
  -2.8842730044903470E-003  -2.1220918050126000E-003   0.0000000000000000     
   0.0000000000000000        0.0000000000000000        0.0000000000000000     
   2.4062047636203682E-004   2.4688008931091337E-003   0.0000000000000000     
   1.4455109071830107E-004   3.6113503157577573E-003   0.0000000000000000     
  -5.9971518644980927E-004   2.6238463641198619E-003   0.0000000000000000     
  -2.3036853846608962E-003  -1.2975128656305666E-003   0.0000000000000000     
   0.0000000000000000        0.0000000000000000        0.0000000000000000     
   2.4741759183510614E-004   2.6289773880788891E-003   0.0000000000000000     
   1.4253021830526021E-004   3.4347614149579870E-003   0.0000000000000000     
  -4.8980529797320530E-004   2.7897283807730741E-003   0.0000000000000000     
  -1.8247321343839577E-003   1.0662545856599381E-003   0.0000000000000000     
   0.0000000000000000        0.0000000000000000        0.0000000000000000     
   2.7426303289245386E-004   2.9022703616287285E-003   0.0000000000000000     
   1.4550022149494469E-004   3.3180726892011771E-003   0.0000000000000000     
  -4.3163042548601959E-004   2.8884374159913054E-003   0.0000000000000000     
  -1.5024708993439310E-003   3.2543949752730675E-003   0.0000000000000000     
   0.0000000000000000        0.0000000000000000        0.0000000000000000     
   2.7426303289245386E-004   2.9022703616287285E-003   0.0000000000000000     
   1.4550022149494469E-004   3.3180726892011771E-003   0.0000000000000000     
  -4.3163042548601959E-004   2.8884374159913054E-003   0.0000000000000000     
  -1.5024708993439310E-003   3.2543949752730675E-003   0.0000000000000000     
   0.0000000000000000        0.0000000000000000        0.0000000000000000     
   3.5654521238881373E-004   3.1510238151628966E-003   0.0000000000000000     
   1.3864093570857357E-004   3.3964397155205254E-003   0.0000000000000000     
  -4.9135394416615936E-004   2.9292373613779479E-003   0.0000000000000000     
  -1.3710805413608236E-003   3.9424064130402286E-003   0.0000000000000000     
   0.0000000000000000        0.0000000000000000        0.0000000000000000     
   4.6356930909128766E-004   3.3273064112739129E-003   0.0000000000000000     
   1.2855022357835774E-004   3.6191176912790542E-003   0.0000000000000000     
  -6.1605017042302350E-004   2.9431305612601260E-003   0.0000000000000000     
  -1.3812247867970890E-003   3.3670417424618336E-003   0.0000000000000000     
   0.0000000000000000        0.0000000000000000        0.0000000000000000     
   5.4811969324506944E-004   3.4056179778513651E-003   0.0000000000000000     
   1.2718045453925599E-004   3.8888867189222479E-003   0.0000000000000000     
  -7.2302115597388313E-004   2.9665539731458935E-003   0.0000000000000000     
  -1.4626885781507885E-003   2.1553674904555408E-003   0.0000000000000000     
   0.0000000000000000        0.0000000000000000        0.0000000000000000     
   5.6298073509535322E-004   3.3604583427848393E-003   0.0000000000000000     
   1.4648399802622719E-004   4.1085269008955929E-003   0.0000000000000000     
  -7.2956895253600861E-004   3.0359445545433046E-003   0.0000000000000000     
  -1.5452568579199838E-003   9.3445018393901211E-004   0.0000000000000000     
   0.0000000000000000        0.0000000000000000        0.0000000000000000     
   5.6298073509535322E-004   3.3604583427848393E-003   0.0000000000000000     
   1.4648399802622719E-004   4.1085269008955929E-003   0.0000000000000000     
  -7.2956895253600861E-004   3.0359445545433046E-003   0.0000000000000000     
  -1.5452568579199838E-003   9.3445018393901211E-004   0.0000000000000000     
   0.0000000000000000        0.0000000000000000        0.0000000000000000     
   4.7909330424986227E-004   3.1838752652663216E-003   0.0000000000000000     
   1.9337188733007559E-004   4.2040279864407632E-003   0.0000000000000000     
  -5.8284499068303540E-004   3.1759974457025485E-003   0.0000000000000000     
  -1.5752380697131448E-003   2.1532292523090561E-004   0.0000000000000000     
   0.0000000000000000        0.0000000000000000        0.0000000000000000     
   3.4002426776643898E-004   2.9381082296973931E-003   0.0000000000000000     
   2.5458981116498544E-004   4.1942183119841906E-003   0.0000000000000000     
  -3.4939821641405362E-004   3.3644405178423595E-003   0.0000000000000000     
  -1.5650346615803709E-003   4.4885118253865726E-005   0.0000000000000000     
   0.0000000000000000        0.0000000000000000        0.0000000000000000     
   2.0749699206545539E-004   2.7029446517820347E-003   0.0000000000000000     
   3.1184212210098639E-004   4.1211358607485017E-003   0.0000000000000000     
  -1.2562695458451776E-004   3.5672598249236031E-003   0.0000000000000000     
  -1.5435725826821677E-003   3.5400274233153382E-004   0.0000000000000000     
   0.0000000000000000        0.0000000000000000        0.0000000000000000     
   1.4323484356728363E-004   2.5581719472242254E-003   0.0000000000000000     
   3.4683317270810824E-004   4.0268186159563221E-003   0.0000000000000000     
  -7.9295300498817377E-006   3.7504414209071461E-003   0.0000000000000000     
  -1.5397777821790418E-003   1.0735417767875509E-003   0.0000000000000000     
   0.0000000000000000        0.0000000000000000        0.0000000000000000     
   1.4323484356728363E-004   2.5581719472242254E-003   0.0000000000000000     
   3.4683317270810824E-004   4.0268186159563221E-003   0.0000000000000000     
  -7.9295300498817377E-006   3.7504414209071461E-003   0.0000000000000000     
  -1.5397777821790418E-003   1.0735417767875509E-003   0.0000000000000000     
   0.0000000000000000        0.0000000000000000        0.0000000000000000     
   1.9041776884843220E-004   2.5565180872421469E-003   0.0000000000000000     
   3.4767685856475114E-004   3.9523280084580170E-003   0.0000000000000000     
  -6.2076053181126867E-005   3.8904964553876792E-003   0.0000000000000000     
  -1.5726942887192854E-003   2.0740901197712006E-003   0.0000000000000000     
   0.0000000000000000        0.0000000000000000        0.0000000000000000     
   3.1805203510995627E-004   2.6424732651107855E-003   0.0000000000000000     
   3.2812524728279902E-004   3.9348192596149294E-003   0.0000000000000000     
  -2.3132377641134141E-004   4.0060364604951907E-003   0.0000000000000000     
  -1.6218384489023348E-003   2.9851233447343349E-003   0.0000000000000000     
   0.0000000000000000        0.0000000000000000        0.0000000000000000     
   4.7660048970904766E-004   2.7334682296193289E-003   0.0000000000000000     
   3.0833994948250632E-004   4.0104710384161399E-003   0.0000000000000000     
  -4.2830173768914102E-004   4.1261980639934921E-003   0.0000000000000000     
  -1.6568446888154114E-003   3.3758389439544454E-003   0.0000000000000000     
   0.0000000000000000        0.0000000000000000        0.0000000000000000     
   6.1652598000289810E-004   2.7469337295569648E-003   0.0000000000000000     
   3.0848257578412763E-004   4.2154620138507345E-003   0.0000000000000000     
  -5.6563897496314107E-004   4.2801178936463955E-003   0.0000000000000000     
  -1.6473474345457379E-003   2.8154344097090266E-003   0.0000000000000000     
   0.0000000000000000        0.0000000000000000        0.0000000000000000     
   6.1652598000289810E-004   2.7469337295569648E-003   0.0000000000000000     
   3.0848257578412763E-004   4.2154620138507345E-003   0.0000000000000000     
  -5.6563897496314107E-004   4.2801178936463955E-003   0.0000000000000000     
  -1.6473474345457379E-003   2.8154344097090266E-003   0.0000000000000000     
   0.0000000000000000        0.0000000000000000        0.0000000000000000     
   6.9836087569804368E-004   2.6314545733264632E-003   0.0000000000000000     
   3.4167897510398019E-004   4.5567086820895763E-003   0.0000000000000000     
  -5.8065404298475193E-004   4.4853770245012045E-003   0.0000000000000000     
  -1.5792465197707129E-003   1.1270742987732189E-003   0.0000000000000000     
   0.0000000000000000        0.0000000000000000        0.0000000000000000     
   7.2291563589839891E-004   2.4602318077849334E-003   0.0000000000000000     
   3.9291194954263096E-004   4.9240788480306285E-003   0.0000000000000000     
  -5.0942356371656340E-004   4.7133343207391969E-003   0.0000000000000000     
  -1.5035034085284428E-003  -8.5020857408724408E-004   0.0000000000000000     
   0.0000000000000000        0.0000000000000000        0.0000000000000000     
   7.0107024205722239E-004   2.3376205394030672E-003   0.0000000000000000     
   4.4012853949670997E-004   5.1781781437536369E-003   0.0000000000000000     
  -4.1271367592396029E-004   4.9237930938251422E-003   0.0000000000000000     
  -1.4873449724472111E-003  -2.0234143296089841E-003   0.0000000000000000     
   0.0000000000000000        0.0000000000000000        0.0000000000000000     
   6.4370467562777306E-004   2.3679758746515587E-003   0.0000000000000000     
   4.6127578536284705E-004   5.1796122013383471E-003   0.0000000000000000     
  -3.5129051837232784E-004   5.0765566552238078E-003   0.0000000000000000     
  -1.5979980831553010E-003  -1.2995430885286185E-003   0.0000000000000000     
   0.0000000000000000        0.0000000000000000        0.0000000000000000     
   6.4370467562777306E-004   2.3679758746515587E-003   0.0000000000000000     
   4.6127578536284705E-004   5.1796122013383471E-003   0.0000000000000000     
  -3.5129051837232784E-004   5.0765566552238078E-003   0.0000000000000000     
  -1.5979980831553010E-003  -1.2995430885286185E-003   0.0000000000000000     
   0.0000000000000000        0.0000000000000000        0.0000000000000000     
   5.5509832734608933E-004   2.5984435644701882E-003   0.0000000000000000     
   4.4091080914213511E-004   4.8625507581952238E-003   0.0000000000000000     
  -3.6240214597621089E-004   5.1531013431905474E-003   0.0000000000000000     
  -1.8746801293732965E-003   1.8308750814716034E-003   0.0000000000000000     
   0.0000000000000000        0.0000000000000000        0.0000000000000000     
   4.1312822507932954E-004   2.8473319376751001E-003   0.0000000000000000     
   3.9003105925351978E-004   4.4554199730576045E-003   0.0000000000000000     
  -3.8922427824679629E-004   5.2215956031430363E-003   0.0000000000000000     
  -2.2445705681909851E-003   5.5431903249269273E-003   0.0000000000000000     
   0.0000000000000000        0.0000000000000000        0.0000000000000000     
   1.8907080597743231E-004   2.8757399675515289E-003   0.0000000000000000     
   3.2624406572040959E-004   4.2602101099895500E-003   0.0000000000000000     
  -3.5141455084443146E-004   5.3718809072895394E-003   0.0000000000000000     
  -2.6068393737904544E-003   7.4292228394269673E-003   0.0000000000000000     
   0.0000000000000000        0.0000000000000000        0.0000000000000000     
  -1.4579749280966425E-004   2.4447666273847051E-003   0.0000000000000000     
   2.6715735856621341E-004   4.5789114330551193E-003   0.0000000000000000     
  -1.6863059942946328E-004   5.6937987278383112E-003   0.0000000000000000     
  -2.8606565203537914E-003   5.0807928225613400E-003   0.0000000000000000     
   0.0000000000000000        0.0000000000000000        0.0000000000000000     
  -1.4579749280966425E-004   2.4447666273847051E-003   0.0000000000000000     
   2.6715735856621341E-004   4.5789114330551193E-003   0.0000000000000000     
  -1.6863059942946328E-004   5.6937987278383112E-003   0.0000000000000000     
  -2.8606565203537914E-003   5.0807928225613400E-003   0.0000000000000000     
   0.0000000000000000        0.0000000000000000        0.0000000000000000     
  -6.0001113413613949E-004   1.5166175303944957E-003   0.0000000000000000     
   2.3034300861410142E-004   5.4901483750163073E-003   0.0000000000000000     
   2.0131157160437470E-004   6.1995472350060456E-003   0.0000000000000000     
  -2.9768563018116654E-003  -2.0762311884956908E-003   0.0000000000000000     
   0.0000000000000000        0.0000000000000000        0.0000000000000000     
  -1.1013481808726416E-003   8.5792484953928455E-004   0.0000000000000000     
   2.3323124988628883E-004   6.1790820434268505E-003   0.0000000000000000     
   6.4796248292980376E-004   6.5907513910431724E-003   0.0000000000000000     
  -3.2129302910890822E-003  -7.2797872982312819E-003   0.0000000000000000     
   0.0000000000000000        0.0000000000000000        0.0000000000000000     
  -1.5573975958939369E-003   1.4364273977120862E-003   0.0000000000000000     
   2.9321685720475277E-004   5.6075077145384218E-003   0.0000000000000000     
   1.0227142864861600E-003   6.4913928562085627E-003   0.0000000000000000     
  -3.8980343808596254E-003  -1.9337652715479476E-003   0.0000000000000000     
   0.0000000000000000        0.0000000000000000        0.0000000000000000     
  -1.8757483420747921E-003   4.2198639878059168E-003   0.0000000000000000     
   4.2769460539147106E-004   2.7372206646026926E-003   0.0000000000000000     
   1.1769591342127780E-003   5.5254532907610728E-003   0.0000000000000000     
  -5.3613244637968800E-003   2.2557945126651796E-002   0.0000000000000000     
 </DataArray>
 </PointData>
 </Piece>
 <Piece  NumberOfPoints="           200 "  NumberOfCells="          128 ">
 <Points>
 <DataArray  type="Float64" NumberOfComponents="3"  format="ascii" >
   0.0000000000000000        0.0000000000000000        0.0000000000000000     
   2.5000000000000000        0.0000000000000000        0.0000000000000000     
   5.0000000000000000        0.0000000000000000        0.0000000000000000     
   7.5000000000000000        0.0000000000000000        0.0000000000000000     
   10.000000000000000        0.0000000000000000        0.0000000000000000     
   0.0000000000000000       0.15625000000000000        0.0000000000000000     
   2.5000000000000000       0.15625000000000000        0.0000000000000000     
   5.0000000000000000       0.15624999999999997        0.0000000000000000     
   7.5000000000000000       0.15625000000000003        0.0000000000000000     
   10.000000000000000       0.15625000000000000        0.0000000000000000     
   0.0000000000000000       0.31250000000000006        0.0000000000000000     
   2.5000000000000000       0.31250000000000000        0.0000000000000000     
   5.0000000000000000       0.31250000000000006        0.0000000000000000     
   7.4999999999999982       0.31249999999999994        0.0000000000000000     
   10.000000000000000       0.31250000000000006        0.0000000000000000     
   0.0000000000000000       0.46875000000000000        0.0000000000000000     
   2.5000000000000000       0.46875000000000000        0.0000000000000000     
   5.0000000000000000       0.46875000000000000        0.0000000000000000     
   7.5000000000000000       0.46875000000000000        0.0000000000000000     
   10.000000000000000       0.46875000000000000        0.0000000000000000     
   0.0000000000000000       0.62500000000000011        0.0000000000000000     
   2.5000000000000000       0.62500000000000000        0.0000000000000000     
   5.0000000000000009       0.62500000000000000        0.0000000000000000     
   7.4999999999999991       0.62500000000000000        0.0000000000000000     
   10.000000000000000       0.62500000000000011        0.0000000000000000     
   0.0000000000000000       0.62500000000000011        0.0000000000000000     
   2.5000000000000000       0.62500000000000000        0.0000000000000000     
   5.0000000000000009       0.62500000000000000        0.0000000000000000     
   7.4999999999999991       0.62500000000000000        0.0000000000000000     
   10.000000000000000       0.62500000000000011        0.0000000000000000     
   0.0000000000000000       0.78124999999999989        0.0000000000000000     
   2.5000000000000000       0.78125000000000011        0.0000000000000000     
   5.0000000000000009       0.78125000000000011        0.0000000000000000     
   7.5000000000000000       0.78125000000000000        0.0000000000000000     
   9.9999999999999982       0.78124999999999989        0.0000000000000000     
   0.0000000000000000       0.93749999999999989        0.0000000000000000     
   2.5000000000000000       0.93749999999999989        0.0000000000000000     
   5.0000000000000000       0.93750000000000000        0.0000000000000000     
   7.4999999999999991       0.93749999999999989        0.0000000000000000     
   10.000000000000000       0.93749999999999989        0.0000000000000000     
   0.0000000000000000        1.0937499999999998        0.0000000000000000     
   2.5000000000000000        1.0937500000000000        0.0000000000000000     
   5.0000000000000009        1.0937500000000004        0.0000000000000000     
   7.5000000000000000        1.0937500000000000        0.0000000000000000     
   10.000000000000000        1.0937499999999998        0.0000000000000000     
   0.0000000000000000        1.2500000000000002        0.0000000000000000     
   2.4999999999999996        1.2500000000000000        0.0000000000000000     
   4.9999999999999991        1.2499999999999998        0.0000000000000000     
   7.5000000000000009        1.2500000000000002        0.0000000000000000     