 <VTKFile type="UnstructuredGrid"  version="0.1"   >
 <UnstructuredGrid>
 <Piece  NumberOfPoints="           200 "  NumberOfCells="          128 ">
 <Points>
 <DataArray  type="Float64" NumberOfComponents="3"  format="ascii" >
  -10.000000000000000        0.0000000000000000        0.0000000000000000     
  -7.5000000000000000        0.0000000000000000        0.0000000000000000     
  -5.0000000000000000        0.0000000000000000        0.0000000000000000     
  -2.4999999999999996        0.0000000000000000        0.0000000000000000     
   0.0000000000000000        0.0000000000000000        0.0000000000000000     
  -10.000000000000000       0.15625000000000000        0.0000000000000000     
  -7.5000000000000000       0.15625000000000000        0.0000000000000000     
  -5.0000000000000000       0.15624999999999997        0.0000000000000000     
  -2.5000000000000000       0.15625000000000003        0.0000000000000000     
   0.0000000000000000       0.15625000000000000        0.0000000000000000     
  -10.000000000000000       0.31250000000000006        0.0000000000000000     
  -7.5000000000000000       0.31250000000000000        0.0000000000000000     
  -5.0000000000000000       0.31250000000000006        0.0000000000000000     
  -2.4999999999999996       0.31249999999999994        0.0000000000000000     
   0.0000000000000000       0.31250000000000006        0.0000000000000000     
  -10.000000000000000       0.46875000000000000        0.0000000000000000     
  -7.5000000000000000       0.46875000000000000        0.0000000000000000     
  -5.0000000000000000       0.46875000000000000        0.0000000000000000     
  -2.4999999999999996       0.46875000000000000        0.0000000000000000     
   0.0000000000000000       0.46875000000000000        0.0000000000000000     
  -10.000000000000000       0.62500000000000011        0.0000000000000000     
  -7.5000000000000000       0.62500000000000000        0.0000000000000000     
  -5.0000000000000009       0.62500000000000000        0.0000000000000000     
  -2.4999999999999996       0.62500000000000000        0.0000000000000000     
   0.0000000000000000       0.62500000000000011        0.0000000000000000     
  -10.000000000000000       0.62500000000000011        0.0000000000000000     
  -7.5000000000000000       0.62500000000000000        0.0000000000000000     
  -5.0000000000000009       0.62500000000000000        0.0000000000000000     
  -2.4999999999999996       0.62500000000000000        0.0000000000000000     
   0.0000000000000000       0.62500000000000011        0.0000000000000000     
  -9.9999999999999982       0.78124999999999989        0.0000000000000000     
  -7.5000000000000000       0.78125000000000011        0.0000000000000000     
  -5.0000000000000009       0.78125000000000011        0.0000000000000000     
  -2.4999999999999996       0.78125000000000000        0.0000000000000000     
   0.0000000000000000       0.78124999999999989        0.0000000000000000     
  -10.000000000000000       0.93749999999999989        0.0000000000000000     
  -7.4999999999999991       0.93749999999999989        0.0000000000000000     
  -5.0000000000000000       0.93750000000000000        0.0000000000000000     
  -2.5000000000000000       0.93749999999999989        0.0000000000000000     
   0.0000000000000000       0.93749999999999989        0.0000000000000000     
  -10.000000000000000        1.0937499999999998        0.0000000000000000     
  -7.5000000000000000        1.0937500000000000        0.0000000000000000     
  -5.0000000000000009        1.0937500000000004        0.0000000000000000     
  -2.5000000000000000        1.0937500000000000        0.0000000000000000     
   0.0000000000000000        1.0937499999999998        0.0000000000000000     
  -10.000000000000004        1.2500000000000002        0.0000000000000000     
  -7.5000000000000000        1.2500000000000000        0.0000000000000000     
  -4.9999999999999991        1.2499999999999998        0.0000000000000000     
  -2.5000000000000000        1.2500000000000002        0.0000000000000000     
   0.0000000000000000        1.2500000000000002        0.0000000000000000     
  -10.000000000000004        1.2500000000000002        0.0000000000000000     
  -7.5000000000000000        1.2500000000000000        0.0000000000000000     
  -4.9999999999999991        1.2499999999999998        0.0000000000000000     
  -2.5000000000000000        1.2500000000000002        0.0000000000000000     
   0.0000000000000000        1.2500000000000002        0.0000000000000000     
  -9.9999999999999982        1.4062499999999998        0.0000000000000000     
  -7.4999999999999991        1.4062500000000000        0.0000000000000000     
  -5.0000000000000009        1.4062500000000002        0.0000000000000000     
  -2.5000000000000000        1.4062500000000000        0.0000000000000000     
   0.0000000000000000        1.4062499999999998        0.0000000000000000     
  -10.000000000000002        1.5625000000000002        0.0000000000000000     
  -7.4999999999999982        1.5624999999999998        0.0000000000000000     
  -5.0000000000000009        1.5625000000000004        0.0000000000000000     
  -2.5000000000000004        1.5625000000000000        0.0000000000000000     
   0.0000000000000000        1.5625000000000002        0.0000000000000000     
  -10.000000000000002        1.7187500000000002        0.0000000000000000     
  -7.5000000000000000        1.7187500000000000        0.0000000000000000     
  -4.9999999999999982        1.7187500000000000        0.0000000000000000     
  -2.4999999999999996        1.7187500000000002        0.0000000000000000     
   0.0000000000000000        1.7187500000000002        0.0000000000000000     
  -10.000000000000004        1.8750000000000004        0.0000000000000000     
  -7.5000000000000000        1.8750000000000000        0.0000000000000000     
  -4.9999999999999991        1.8750000000000000        0.0000000000000000     
  -2.5000000000000000        1.8750000000000002        0.0000000000000000     
   0.0000000000000000        1.8750000000000004        0.0000000000000000     
  -10.000000000000004        1.8750000000000004        0.0000000000000000     
  -7.5000000000000000        1.8750000000000000        0.0000000000000000     
  -4.9999999999999991        1.8750000000000000        0.0000000000000000     
  -2.5000000000000000        1.8750000000000002        0.0000000000000000     
   0.0000000000000000        1.8750000000000004        0.0000000000000000     
  -9.9999999999999982        2.0312500000000000        0.0000000000000000     
  -7.4999999999999991        2.0312500000000000        0.0000000000000000     
  -5.0000000000000009        2.0312500000000004        0.0000000000000000     
  -2.5000000000000000        2.0312500000000000        0.0000000000000000     
   0.0000000000000000        2.0312500000000000        0.0000000000000000     
  -10.000000000000002        2.1875000000000004        0.0000000000000000     
  -7.4999999999999982        2.1874999999999996        0.0000000000000000     
  -5.0000000000000009        2.1875000000000004        0.0000000000000000     
  -2.5000000000000004        2.1875000000000004        0.0000000000000000     
   0.0000000000000000        2.1875000000000004        0.0000000000000000     
  -10.000000000000002        2.3437500000000004        0.0000000000000000     
  -7.5000000000000000        2.3437500000000000        0.0000000000000000     
  -4.9999999999999982        2.3437499999999996        0.0000000000000000     
  -2.4999999999999996        2.3437500000000004        0.0000000000000000     
   0.0000000000000000        2.3437500000000004        0.0000000000000000     
  -10.000000000000004        2.5000000000000004        0.0000000000000000     
  -7.5000000000000000        2.5000000000000000        0.0000000000000000     
  -4.9999999999999991        2.5000000000000000        0.0000000000000000     
  -2.5000000000000000        2.5000000000000000        0.0000000000000000     
   0.0000000000000000        2.5000000000000004        0.0000000000000000     
  -10.000000000000004        2.5000000000000004        0.0000000000000000     
  -7.5000000000000000        2.5000000000000000        0.0000000000000000     
  -4.9999999999999991        2.5000000000000000        0.0000000000000000     
  -2.5000000000000000        2.5000000000000000        0.0000000000000000     
   0.0000000000000000        2.5000000000000004        0.0000000000000000     
  -9.9999999999999982        2.6562500000000000        0.0000000000000000     
  -7.4999999999999991        2.6562500000000000        0.0000000000000000     
  -5.0000000000000009        2.6562500000000004        0.0000000000000000     
  -2.5000000000000000        2.6562500000000000        0.0000000000000000     
   0.0000000000000000        2.6562500000000000        0.0000000000000000     
  -10.000000000000002        2.8125000000000004        0.0000000000000000     
  -7.4999999999999982        2.8124999999999996        0.0000000000000000     
  -5.0000000000000009        2.8125000000000004        0.0000000000000000     
  -2.5000000000000004        2.8125000000000000        0.0000000000000000     
   0.0000000000000000        2.8125000000000004        0.0000000000000000     
  -10.000000000000002        2.9687500000000000        0.0000000000000000     
  -7.5000000000000000        2.9687499999999996        0.0000000000000000     
  -4.9999999999999982        2.9687500000000000        0.0000000000000000     
  -2.4999999999999996        2.9687500000000004        0.0000000000000000     
   0.0000000000000000        2.9687500000000000        0.0000000000000000     
  -10.000000000000004        3.1250000000000000        0.0000000000000000     
  -7.5000000000000000        3.1250000000000000        0.0000000000000000     
  -4.9999999999999991        3.1250000000000000        0.0000000000000000     
[...]
 <PointData>
 <DataArray  type="Float64" Name="disp" NumberOfComponents="3" format="ascii">
   0.0000000000000000        0.0000000000000000        0.0000000000000000     
  -2.9329767705974823E-002  -2.3190800674354511E-002   0.0000000000000000     
  -2.6809855669947150E-002  -6.9445665616274563E-002   0.0000000000000000     
  -1.4613650906141147E-002 -0.11229088031520243        0.0000000000000000     
  -1.4914540428780992E-002 -0.12525273026058037        0.0000000000000000     
   0.0000000000000000        0.0000000000000000        0.0000000000000000     
  -2.5258925075869118E-002  -2.3397428266803647E-002   0.0000000000000000     
  -2.4193574631989248E-002  -6.9821910378357901E-002   0.0000000000000000     
  -1.4138447363914067E-002 -0.11252643882317978        0.0000000000000000     
  -1.2428041967197240E-002 -0.12476400608978612        0.0000000000000000     
   0.0000000000000000        0.0000000000000000        0.0000000000000000     
  -2.1089664221949841E-002  -2.3704908233331941E-002   0.0000000000000000     
  -2.1761443714478870E-002  -7.0078943817515671E-002   0.0000000000000000     
  -1.4079336914004857E-002 -0.11274640776965254        0.0000000000000000     
  -1.0107342256945578E-002 -0.12533160110684397        0.0000000000000000     
   0.0000000000000000        0.0000000000000000        0.0000000000000000     
  -1.7148123927207989E-002  -2.3904382963728221E-002   0.0000000000000000     
  -1.9504749123079746E-002  -7.0185638477386278E-002   0.0000000000000000     
  -1.4142553267236305E-002 -0.11297586804646012        0.0000000000000000     
  -8.1342140392987230E-003 -0.12640717317643568        0.0000000000000000     
   0.0000000000000000        0.0000000000000000        0.0000000000000000     
  -1.3760442974634602E-002  -2.3786994847781323E-002   0.0000000000000000     
  -1.7414777063455629E-002  -7.0110866901608254E-002   0.0000000000000000     
  -1.4034330134431186E-002 -0.11323990054544186        0.0000000000000000     
  -6.6904300555293934E-003 -0.12744238016324333        0.0000000000000000     
   0.0000000000000000        0.0000000000000000        0.0000000000000000     
  -1.3760442974634602E-002  -2.3786994847781323E-002   0.0000000000000000     
  -1.7414777063455629E-002  -7.0110866901608254E-002   0.0000000000000000     
  -1.4034330134431186E-002 -0.11323990054544186        0.0000000000000000     
  -6.6904300555293934E-003 -0.12744238016324333        0.0000000000000000     
   0.0000000000000000        0.0000000000000000        0.0000000000000000     
  -1.1153620303627177E-002  -2.3216475324791357E-002   0.0000000000000000     
  -1.5482110035790409E-002  -6.9844826501987298E-002   0.0000000000000000     
  -1.3541702630421740E-002 -0.11355241711203497        0.0000000000000000     
  -5.8886315214532210E-003 -0.12800661073538147        0.0000000000000000     
   0.0000000000000000        0.0000000000000000        0.0000000000000000     
  -9.1580954792091860E-003  -2.2346912032103320E-002   0.0000000000000000     
  -1.3694515718348566E-002  -6.9463014162998299E-002   0.0000000000000000     
  -1.2774911486078032E-002 -0.11388265340606815        0.0000000000000000     
  -5.5649335510574898E-003 -0.12814017677469616        0.0000000000000000     
   0.0000000000000000        0.0000000000000000        0.0000000000000000     
  -7.5051682228106011E-003  -2.1404981656573504E-002   0.0000000000000000     
  -1.2039058083914728E-002  -6.9062251637283439E-002   0.0000000000000000     
  -1.1924998836279585E-002 -0.11418867604096812        0.0000000000000000     
  -5.4863197328723920E-003 -0.12800112096646599        0.0000000000000000     
   0.0000000000000000        0.0000000000000000        0.0000000000000000     
  -5.9261382558613816E-003  -2.0617360885058202E-002   0.0000000000000000     
  -1.0502801105273515E-002  -6.8739360677484831E-002   0.0000000000000000     
  -1.1183006815905923E-002 -0.11442855163016152        0.0000000000000000     
  -5.4197736554281216E-003 -0.12774748599596977        0.0000000000000000     
   0.0000000000000000        0.0000000000000000        0.0000000000000000     
  -5.9261382558613816E-003  -2.0617360885058202E-002   0.0000000000000000     
  -1.0502801105273515E-002  -6.8739360677484831E-002   0.0000000000000000     
  -1.1183006815905923E-002 -0.11442855163016152        0.0000000000000000     
  -5.4197736554281216E-003 -0.12774748599596977        0.0000000000000000     
   0.0000000000000000        0.0000000000000000        0.0000000000000000     
  -4.2291694304412257E-003  -2.0159518414120052E-002   0.0000000000000000     
  -9.0731725314760862E-003  -6.8567291279633472E-002   0.0000000000000000     
  -1.0680793307649632E-002 -0.11456932806733415        0.0000000000000000     
  -5.2008157635069167E-003 -0.12751163824801598        0.0000000000000000     
   0.0000000000000000        0.0000000000000000        0.0000000000000000     
  -2.5298821212287386E-003  -2.0002090979147312E-002   0.0000000000000000     
  -7.7390552166397087E-003  -6.8523506413315255E-002   0.0000000000000000     
  -1.0313479185455627E-002 -0.11461397836720873        0.0000000000000000     
  -4.9391139268992077E-003 -0.12732323890553271        0.0000000000000000     
   0.0000000000000000        0.0000000000000000        0.0000000000000000     
  -1.0207608335522547E-003  -2.0064507325234581E-002   0.0000000000000000     
  -6.4896957911481784E-003  -6.8561597291504864E-002   0.0000000000000000     
  -9.9170010710818782E-003 -0.11457445682476718        0.0000000000000000     
  -4.8128728716474644E-003 -0.12718627285097772        0.0000000000000000     
   0.0000000000000000        0.0000000000000000        0.0000000000000000     
   1.0570992725989002E-004  -2.0266196197476501E-002   0.0000000000000000     
  -5.3143408853852945E-003  -6.8635155127177036E-002   0.0000000000000000     
  -9.3272955862863747E-003 -0.11446271773499134        0.0000000000000000     
  -5.0002973237941607E-003 -0.12710472496680900        0.0000000000000000     
   0.0000000000000000        0.0000000000000000        0.0000000000000000     
   1.0570992725989002E-004  -2.0266196197476501E-002   0.0000000000000000     
  -5.3143408853852945E-003  -6.8635155127177036E-002   0.0000000000000000     
  -9.3272955862863747E-003 -0.11446271773499134        0.0000000000000000     
  -5.0002973237941607E-003 -0.12710472496680900        0.0000000000000000     
   0.0000000000000000        0.0000000000000000        0.0000000000000000     
   7.3840296560851847E-004  -2.0530316908399349E-002   0.0000000000000000     
  -4.2037596285016184E-003  -6.8701798205305184E-002   0.0000000000000000     
  -8.4437038245839622E-003 -0.11429245105285890        0.0000000000000000     
  -5.5986456648920513E-003 -0.12708028261320189        0.0000000000000000     
   0.0000000000000000        0.0000000000000000        0.0000000000000000     
   1.0916203248110714E-003  -2.0794951040256155E-002   0.0000000000000000     
  -3.1548111447147710E-003  -6.8735253098857502E-002   0.0000000000000000     
  -7.4191847665169832E-003 -0.11408428937333064        0.0000000000000000     
  -6.3813908985350214E-003 -0.12710544306120208        0.0000000000000000     
   0.0000000000000000        0.0000000000000000        0.0000000000000000     
   1.4610213579141480E-003  -2.1001910742731611E-002   0.0000000000000000     
  -2.1658770570091371E-003  -6.8713273452801010E-002   0.0000000000000000     
  -6.4701018643846626E-003 -0.11386060095136309        0.0000000000000000     
  -7.0410596838272315E-003 -0.12717040605957264        0.0000000000000000     
   0.0000000000000000        0.0000000000000000        0.0000000000000000     
   2.1422654179643450E-003  -2.1093008165510397E-002   0.0000000000000000     
  -1.2353389883691045E-003  -6.8613612912102662E-002   0.0000000000000000     
  -5.8128185704862155E-003 -0.11364375404191283        0.0000000000000000     
  -7.2701786798728494E-003 -0.12726537135707680        0.0000000000000000     
   0.0000000000000000        0.0000000000000000        0.0000000000000000     
   2.1422654179643450E-003  -2.1093008165510397E-002   0.0000000000000000     
  -1.2353389883691045E-003  -6.8613612912102662E-002   0.0000000000000000     
  -5.8128185704862155E-003 -0.11364375404191283        0.0000000000000000     
  -7.2701786798728494E-003 -0.12726537135707680        0.0000000000000000     
   0.0000000000000000        0.0000000000000000        0.0000000000000000     
   3.3222057853491940E-003  -2.1030885130852769E-002   0.0000000000000000     
  -3.5375515343609036E-004  -6.8424852315004725E-002   0.0000000000000000     
  -5.5730748526838896E-003 -0.11345044263835291        0.0000000000000000     
  -6.8809453487222276E-003 -0.12737619718679447        0.0000000000000000     
   0.0000000000000000        0.0000000000000000        0.0000000000000000     
   4.7524714498199620E-003  -2.0861502151321206E-002   0.0000000000000000     
   5.1960986652035035E-004  -6.8178881272850406E-002   0.0000000000000000     
  -5.5141167410920622E-003 -0.11327466368772260        0.0000000000000000     
  -6.1642403642104973E-003 -0.12747137571907288        0.0000000000000000     
   0.0000000000000000        0.0000000000000000        0.0000000000000000     
   6.0758853284688498E-003  -2.0651649412053767E-002   0.0000000000000000     
   1.4333148985736317E-003  -6.7918416590258240E-002   0.0000000000000000     
  -5.3085667813881493E-003 -0.11310473987547762        0.0000000000000000     
  -5.5306152031189713E-003 -0.12751505760857601        0.0000000000000000     
   0.0000000000000000        0.0000000000000000        0.0000000000000000     
   6.9352703383880583E-003  -2.0468117098188493E-002   0.0000000000000000     
   2.4359187697971635E-003  -6.7686175071846807E-002   0.0000000000000000     
  -4.6290475192495547E-003 -0.11292899388707371        0.0000000000000000     
  -5.3906213422289691E-003 -0.12747139350996789        0.0000000000000000     
   0.0000000000000000        0.0000000000000000        0.0000000000000000     
   6.9352703383880583E-003  -2.0468117098188493E-002   0.0000000000000000     
   2.4359187697971635E-003  -6.7686175071846807E-002   0.0000000000000000     
  -4.6290475192495547E-003 -0.11292899388707371        0.0000000000000000     
  -5.3906213422289691E-003 -0.12747139350996789        0.0000000000000000     
   0.0000000000000000        0.0000000000000000        0.0000000000000000     
   7.0999924904503542E-003  -2.0366042874007666E-002   0.0000000000000000     
   3.5648020952240306E-003  -6.7517581946285918E-002   0.0000000000000000     
  -3.2561401719556553E-003 -0.11273782011515461        0.0000000000000000     
  -6.0134032973653854E-003 -0.12730996027893357        0.0000000000000000     
   0.0000000000000000        0.0000000000000000        0.0000000000000000     
   6.8455901706507847E-003  -2.0353954320370588E-002   0.0000000000000000     
   4.8126326417259830E-003  -6.7418896138450535E-002   0.0000000000000000     
  -1.4022606431936704E-003 -0.11252989978111590        0.0000000000000000     
  -7.1024777405274339E-003 -0.12702203957524275        0.0000000000000000     
   0.0000000000000000        0.0000000000000000        0.0000000000000000     
   6.5741448587649676E-003  -2.0428726497280784E-002   0.0000000000000000     
   6.1608999641344373E-003  -6.7389084997266882E-002   0.0000000000000000     
   6.1221649174721484E-004 -0.11230598581354108        0.0000000000000000     
  -8.2199543827578981E-003 -0.12660433925968609        0.0000000000000000     
   0.0000000000000000        0.0000000000000000        0.0000000000000000     
   6.6877380345685185E-003  -2.0587234464741790E-002   0.0000000000000000     
   7.5910936172808195E-003  -6.7427115871661281E-002   0.0000000000000000     
   2.4669166575778177E-003 -0.11206683114101372        0.0000000000000000     
  -8.9279429350995684E-003 -0.12605356719305433        0.0000000000000000     
   0.0000000000000000        0.0000000000000000        0.0000000000000000     
   6.6877380345685185E-003  -2.0587234464741790E-002   0.0000000000000000     
   7.5910936172808195E-003  -6.7427115871661281E-002   0.0000000000000000     
   2.4669166575778177E-003 -0.11206683114101372        0.0000000000000000     
  -8.9279429350995684E-003 -0.12605356719305433        0.0000000000000000     
   0.0000000000000000        0.0000000000000000        0.0000000000000000     
   7.4968542834691482E-003  -2.0823203500498242E-002   0.0000000000000000     
   9.0942074093337683E-003  -6.7525497877782684E-002   0.0000000000000000     
   3.9192984131870504E-003 -0.11181213034950820        0.0000000000000000     
  -8.9006336693778169E-003 -0.12538834813332952        0.0000000000000000     
   0.0000000000000000        0.0000000000000000        0.0000000000000000     
   8.9455906134029532E-003  -2.1117759753259149E-002   0.0000000000000000     
   1.0699252161810837E-002  -6.7650907200671101E-002   0.0000000000000000     
   5.0381528541762104E-003 -0.11153734465456222        0.0000000000000000     
  -8.2605391005483690E-003 -0.12471497442725894        0.0000000000000000     
   0.0000000000000000        0.0000000000000000        0.0000000000000000     
   1.0886447137938130E-002  -2.1448879589474622E-002   0.0000000000000000     
   1.2444742949566802E-002  -6.7763561792589161E-002   0.0000000000000000     
   5.9701042103246973E-003 -0.11123687692910443        0.0000000000000000     
  -7.2422523043495311E-003 -0.12416165531878121        0.0000000000000000     
   0.0000000000000000        0.0000000000000000        0.0000000000000000     
   1.3171923970642874E-002  -2.1794539375594783E-002   0.0000000000000000     
   1.4369194847456447E-002  -6.7823679605799589E-002   0.0000000000000000     
   6.8617767114118981E-003 -0.11090513004606335        0.0000000000000000     
  -6.0803663565196075E-003 -0.12385660005183483        0.0000000000000000     
   0.0000000000000000        0.0000000000000000        0.0000000000000000     
   1.3171923970642874E-002  -2.1794539375594783E-002   0.0000000000000000     
   1.4369194847456447E-002  -6.7823679605799589E-002   0.0000000000000000     
   6.8617767114118981E-003 -0.11090513004606335        0.0000000000000000     
  -6.0803663565196075E-003 -0.12385660005183483        0.0000000000000000     
   0.0000000000000000        0.0000000000000000        0.0000000000000000     
   1.5696695975780533E-002  -2.2129854382847244E-002   0.0000000000000000     
   1.6500859694883730E-002  -6.7802239144957033E-002   0.0000000000000000     
   7.8216022492098788E-003 -0.11054132233078319        0.0000000000000000     
  -4.9319652693407389E-003 -0.12387127198477962        0.0000000000000000     
   0.0000000000000000        0.0000000000000000        0.0000000000000000     
   1.8524137020395081E-002  -2.2418495501569755E-002   0.0000000000000000     
   1.8826936389449364E-002  -6.7713261124283761E-002   0.0000000000000000     
   8.8052433634613781E-003 -0.11016393391827098        0.0000000000000000     
  -3.6440968012703898E-003 -0.12405015093366016        0.0000000000000000     
   0.0000000000000000        0.0000000000000000        0.0000000000000000     
   2.1759795722225639E-002  -2.2621272526877578E-002   0.0000000000000000     
   2.1324360593303265E-002  -6.7581526810394060E-002   0.0000000000000000     
   9.7301702559017978E-003 -0.10979626039594907        0.0000000000000000     
  -1.9862996473098511E-003 -0.12418097082894224        0.0000000000000000     
   0.0000000000000000        0.0000000000000000        0.0000000000000000     
   2.5509220699011344E-002  -2.2698995253885981E-002   0.0000000000000000     
   2.3970067968595327E-002  -6.7431817469902136E-002   0.0000000000000000     
   1.0513853128266547E-002 -0.10946159735124016        0.0000000000000000     
   2.7188749753958262E-004 -0.12405146560109165        0.0000000000000000     
 </DataArray>
 </PointData>
 </Piece>
 <Piece  NumberOfPoints="           200 "  NumberOfCells="          128 ">
 <Points>
 <DataArray  type="Float64" NumberOfComponents="3"  format="ascii" >
   0.0000000000000000        0.0000000000000000        0.0000000000000000     
   2.5000000000000000        0.0000000000000000        0.0000000000000000     
   5.0000000000000000        0.0000000000000000        0.0000000000000000     
   7.5000000000000000        0.0000000000000000        0.0000000000000000     
   10.000000000000000        0.0000000000000000        0.0000000000000000     
   0.0000000000000000       0.15625000000000000        0.0000000000000000     
   2.5000000000000000       0.15625000000000000        0.0000000000000000     
   5.0000000000000000       0.15624999999999997        0.0000000000000000     
   7.5000000000000000       0.15625000000000003        0.0000000000000000     
   10.000000000000000       0.15625000000000000        0.0000000000000000     
   0.0000000000000000       0.31250000000000006        0.0000000000000000     
   2.5000000000000000       0.31250000000000000        0.0000000000000000     
   5.0000000000000000       0.31250000000000006        0.0000000000000000     
   7.4999999999999982       0.31249999999999994        0.0000000000000000     
   10.000000000000000       0.31250000000000006        0.0000000000000000     
   0.0000000000000000       0.46875000000000000        0.0000000000000000     
   2.5000000000000000       0.46875000000000000        0.0000000000000000     
   5.0000000000000000       0.46875000000000000        0.0000000000000000     
   7.5000000000000000       0.46875000000000000        0.0000000000000000     
   10.000000000000000       0.46875000000000000        0.0000000000000000     
   0.0000000000000000       0.62500000000000011        0.0000000000000000     
   2.5000000000000000       0.62500000000000000        0.0000000000000000     
   5.0000000000000009       0.62500000000000000        0.0000000000000000     
   7.4999999999999991       0.62500000000000000        0.0000000000000000     
   10.000000000000000       0.62500000000000011        0.0000000000000000     
   0.0000000000000000       0.62500000000000011        0.0000000000000000     
   2.5000000000000000       0.62500000000000000        0.0000000000000000     
   5.0000000000000009       0.62500000000000000        0.0000000000000000     
   7.4999999999999991       0.62500000000000000        0.0000000000000000     
   10.000000000000000       0.62500000000000011        0.0000000000000000     
   0.0000000000000000       0.78124999999999989        0.0000000000000000     
   2.5000000000000000       0.78125000000000011        0.0000000000000000     
   5.0000000000000009       0.78125000000000011        0.0000000000000000     
   7.5000000000000000       0.78125000000000000        0.0000000000000000     
   9.9999999999999982       0.78124999999999989        0.0000000000000000     
   0.0000000000000000       0.93749999999999989        0.0000000000000000     
   2.5000000000000000       0.93749999999999989        0.0000000000000000     
   5.0000000000000000       0.93750000000000000        0.0000000000000000     
   7.4999999999999991       0.93749999999999989        0.0000000000000000     
   10.000000000000000       0.93749999999999989        0.0000000000000000     
   0.0000000000000000        1.0937499999999998        0.0000000000000000     
   2.5000000000000000        1.0937500000000000        0.0000000000000000     
   5.0000000000000009        1.0937500000000004        0.0000000000000000     
   7.5000000000000000        1.0937500000000000        0.0000000000000000     
   10.000000000000000        1.0937499999999998        0.0000000000000000     
   0.0000000000000000        1.2500000000000002        0.0000000000000000     
   2.4999999999999996        1.2500000000000000        0.0000000000000000     
   4.9999999999999991        1.2499999999999998        0.0000000000000000     
   7.5000000000000009        1.2500000000000002        0.0000000000000000     