 <VTKFile type="UnstructuredGrid"  version="0.1"   >
 <UnstructuredGrid>
 <Piece  NumberOfPoints="           200 "  NumberOfCells="          128 ">
 <Points>
 <DataArray  type="Float64" NumberOfComponents="3"  format="ascii" >
  -10.000000000000000        0.0000000000000000        0.0000000000000000     
  -7.5000000000000000        0.0000000000000000        0.0000000000000000     
  -5.0000000000000000        0.0000000000000000        0.0000000000000000     
  -2.4999999999999996        0.0000000000000000        0.0000000000000000     
   0.0000000000000000        0.0000000000000000        0.0000000000000000     
  -10.000000000000000       0.15625000000000000        0.0000000000000000     
  -7.5000000000000000       0.15625000000000000        0.0000000000000000     
  -5.0000000000000000       0.15624999999999997        0.0000000000000000     
  -2.5000000000000000       0.15625000000000003        0.0000000000000000     
   0.0000000000000000       0.15625000000000000        0.0000000000000000     
  -10.000000000000000       0.31250000000000006        0.0000000000000000     
  -7.5000000000000000       0.31250000000000000        0.0000000000000000     
  -5.0000000000000000       0.31250000000000006        0.0000000000000000     
  -2.4999999999999996       0.31249999999999994        0.0000000000000000     
   0.0000000000000000       0.31250000000000006        0.0000000000000000     
  -10.000000000000000       0.46875000000000000        0.0000000000000000     
  -7.5000000000000000       0.46875000000000000        0.0000000000000000     
  -5.0000000000000000       0.46875000000000000        0.0000000000000000     
  -2.4999999999999996       0.46875000000000000        0.0000000000000000     
   0.0000000000000000       0.46875000000000000        0.0000000000000000     
  -10.000000000000000       0.62500000000000011        0.0000000000000000     
  -7.5000000000000000       0.62500000000000000        0.0000000000000000     
  -5.0000000000000009       0.62500000000000000        0.0000000000000000     
  -2.4999999999999996       0.62500000000000000        0.0000000000000000     
   0.0000000000000000       0.62500000000000011        0.0000000000000000     
  -10.000000000000000       0.62500000000000011        0.0000000000000000     
  -7.5000000000000000       0.62500000000000000        0.0000000000000000     
  -5.0000000000000009       0.62500000000000000        0.0000000000000000     
  -2.4999999999999996       0.62500000000000000        0.0000000000000000     
   0.0000000000000000       0.62500000000000011        0.0000000000000000     
  -9.9999999999999982       0.78124999999999989        0.0000000000000000     
  -7.5000000000000000       0.78125000000000011        0.0000000000000000     
  -5.0000000000000009       0.78125000000000011        0.0000000000000000     
  -2.4999999999999996       0.78125000000000000        0.0000000000000000     
   0.0000000000000000       0.78124999999999989        0.0000000000000000     
  -10.000000000000000       0.93749999999999989        0.0000000000000000     
  -7.4999999999999991       0.93749999999999989        0.0000000000000000     
  -5.0000000000000000       0.93750000000000000        0.0000000000000000     
  -2.5000000000000000       0.93749999999999989        0.0000000000000000     
   0.0000000000000000       0.93749999999999989        0.0000000000000000     
  -10.000000000000000        1.0937499999999998        0.0000000000000000     
  -7.5000000000000000        1.0937500000000000        0.0000000000000000     
  -5.0000000000000009        1.0937500000000004        0.0000000000000000     
  -2.5000000000000000        1.0937500000000000        0.0000000000000000     
   0.0000000000000000        1.0937499999999998        0.0000000000000000     
  -10.000000000000004        1.2500000000000002        0.0000000000000000     
  -7.5000000000000000        1.2500000000000000        0.0000000000000000     
  -4.9999999999999991        1.2499999999999998        0.0000000000000000     
  -2.5000000000000000        1.2500000000000002        0.0000000000000000     
   0.0000000000000000        1.2500000000000002        0.0000000000000000     
  -10.000000000000004        1.2500000000000002        0.0000000000000000     
  -7.5000000000000000        1.2500000000000000        0.0000000000000000     
  -4.9999999999999991        1.2499999999999998        0.0000000000000000     
  -2.5000000000000000        1.2500000000000002        0.0000000000000000     
   0.0000000000000000        1.2500000000000002        0.0000000000000000     
  -9.9999999999999982        1.4062499999999998        0.0000000000000000     
  -7.4999999999999991        1.4062500000000000        0.0000000000000000     
  -5.0000000000000009        1.4062500000000002        0.0000000000000000     
  -2.5000000000000000        1.4062500000000000        0.0000000000000000     
   0.0000000000000000        1.4062499999999998        0.0000000000000000     
  -10.000000000000002        1.5625000000000002        0.0000000000000000     
  -7.4999999999999982        1.5624999999999998        0.0000000000000000     
  -5.0000000000000009        1.5625000000000004        0.0000000000000000     
  -2.5000000000000004        1.5625000000000000        0.0000000000000000     
   0.0000000000000000        1.5625000000000002        0.0000000000000000     
  -10.000000000000002        1.7187500000000002        0.0000000000000000     
  -7.5000000000000000        1.7187500000000000        0.0000000000000000     
  -4.9999999999999982        1.7187500000000000        0.0000000000000000     
  -2.4999999999999996        1.7187500000000002        0.0000000000000000     
   0.0000000000000000        1.7187500000000002        0.0000000000000000     
  -10.000000000000004        1.8750000000000004        0.0000000000000000     
  -7.5000000000000000        1.8750000000000000        0.0000000000000000     
  -4.9999999999999991        1.8750000000000000        0.0000000000000000     
  -2.5000000000000000        1.8750000000000002        0.0000000000000000     
   0.0000000000000000        1.8750000000000004        0.0000000000000000     
  -10.000000000000004        1.8750000000000004        0.0000000000000000     
  -7.5000000000000000        1.8750000000000000        0.0000000000000000     
  -4.9999999999999991        1.8750000000000000        0.0000000000000000     
  -2.5000000000000000        1.8750000000000002        0.0000000000000000     
   0.0000000000000000        1.8750000000000004        0.0000000000000000     
  -9.9999999999999982        2.0312500000000000        0.0000000000000000     
  -7.4999999999999991        2.0312500000000000        0.0000000000000000     
  -5.0000000000000009        2.0312500000000004        0.0000000000000000     
  -2.5000000000000000        2.0312500000000000        0.0000000000000000     
   0.0000000000000000        2.0312500000000000        0.0000000000000000     
  -10.000000000000002        2.1875000000000004        0.0000000000000000     
  -7.4999999999999982        2.1874999999999996        0.0000000000000000     
  -5.0000000000000009        2.1875000000000004        0.0000000000000000     
  -2.5000000000000004        2.1875000000000004        0.0000000000000000     
   0.0000000000000000        2.1875000000000004        0.0000000000000000     
  -10.000000000000002        2.3437500000000004        0.0000000000000000     
  -7.5000000000000000        2.3437500000000000        0.0000000000000000     
  -4.9999999999999982        2.3437499999999996        0.0000000000000000     
  -2.4999999999999996        2.3437500000000004        0.0000000000000000     
   0.0000000000000000        2.3437500000000004        0.0000000000000000     
  -10.000000000000004        2.5000000000000004        0.0000000000000000     
  -7.5000000000000000        2.5000000000000000        0.0000000000000000     
  -4.9999999999999991        2.5000000000000000        0.0000000000000000     
  -2.5000000000000000        2.5000000000000000        0.0000000000000000     
   0.0000000000000000        2.5000000000000004        0.0000000000000000     
  -10.000000000000004        2.5000000000000004        0.0000000000000000     
  -7.5000000000000000        2.5000000000000000        0.0000000000000000     
  -4.9999999999999991        2.5000000000000000        0.0000000000000000     
  -2.5000000000000000        2.5000000000000000        0.0000000000000000     
   0.0000000000000000        2.5000000000000004        0.0000000000000000     
  -9.9999999999999982        2.6562500000000000        0.0000000000000000     
  -7.4999999999999991        2.6562500000000000        0.0000000000000000     
  -5.0000000000000009        2.6562500000000004        0.0000000000000000     
  -2.5000000000000000        2.6562500000000000        0.0000000000000000     
   0.0000000000000000        2.6562500000000000        0.0000000000000000     
  -10.000000000000002        2.8125000000000004        0.0000000000000000     
  -7.4999999999999982        2.8124999999999996        0.0000000000000000     
  -5.0000000000000009        2.8125000000000004        0.0000000000000000     
  -2.5000000000000004        2.8125000000000000        0.0000000000000000     
   0.0000000000000000        2.8125000000000004        0.0000000000000000     
  -10.000000000000002        2.9687500000000000        0.0000000000000000     
  -7.5000000000000000        2.9687499999999996        0.0000000000000000     
  -4.9999999999999982        2.9687500000000000        0.0000000000000000     
  -2.4999999999999996        2.9687500000000004        0.0000000000000000     
   0.0000000000000000        2.9687500000000000        0.0000000000000000     
  -10.000000000000004        3.1250000000000000        0.0000000000000000     
  -7.5000000000000000        3.1250000000000000        0.0000000000000000     
  -4.9999999999999991        3.1250000000000000        0.0000000000000000     
[...]
 <PointData>
 <DataArray  type="Float64" Name="disp" NumberOfComponents="3" format="ascii">
   0.0000000000000000        0.0000000000000000        0.0000000000000000     
  -3.4739222339871562E-002  -6.2351565104814440E-003   0.0000000000000000     
  -8.1136673303143211E-002  -1.0766353812651723E-002   0.0000000000000000     
 -0.10937722177301502       -8.2018477363284634E-003   0.0000000000000000     
  -8.9645736632687059E-002   6.8501058886707069E-003   0.0000000000000000     
   0.0000000000000000        0.0000000000000000        0.0000000000000000     
  -3.4654780395796045E-002  -5.3051371812139342E-003   0.0000000000000000     
  -8.0927654494788351E-002  -9.9348403199871829E-003   0.0000000000000000     
 -0.10945018613407398       -8.0779923602345323E-003   0.0000000000000000     
  -9.0853939150749852E-002   6.0765237541292386E-003   0.0000000000000000     
   0.0000000000000000        0.0000000000000000        0.0000000000000000     
  -3.5162807573392331E-002  -4.3427087439315247E-003   0.0000000000000000     
  -8.0761805651038104E-002  -9.0552121249077907E-003   0.0000000000000000     
 -0.10901026425945343       -7.9111640142552845E-003   0.0000000000000000     
  -9.2121453425154501E-002   5.3157817166994926E-003   0.0000000000000000     
   0.0000000000000000        0.0000000000000000        0.0000000000000000     
  -3.6131386804358567E-002  -3.3946668906520514E-003   0.0000000000000000     
  -8.0627440558367555E-002  -8.1761653859921748E-003   0.0000000000000000     
 -0.10817830585629006       -7.7145785616473577E-003   0.0000000000000000     
  -9.3474127292389186E-002   4.6200105067554032E-003   0.0000000000000000     
   0.0000000000000000        0.0000000000000000        0.0000000000000000     
  -3.7428601020392895E-002  -2.5078073133933516E-003   0.0000000000000000     
  -8.0512873003251856E-002  -7.3463962618189743E-003   0.0000000000000000     
 -0.10707516063172039       -7.5014518656673782E-003   0.0000000000000000     
  -9.4937808588942171E-002   4.0413408546709113E-003   0.0000000000000000     
   0.0000000000000000        0.0000000000000000        0.0000000000000000     
  -3.7428601020392895E-002  -2.5078073133933516E-003   0.0000000000000000     
  -8.0512873003251856E-002  -7.3463962618189743E-003   0.0000000000000000     
 -0.10707516063172039       -7.5014518656673782E-003   0.0000000000000000     
  -9.4937808588942171E-002   4.0413408546709113E-003   0.0000000000000000     
   0.0000000000000000        0.0000000000000000        0.0000000000000000     
  -3.8919780965033818E-002  -1.7174562270750285E-003   0.0000000000000000     
  -8.0409746777648519E-002  -6.6039630154126798E-003   0.0000000000000000     
 -0.10582088191126222       -7.2838938498797565E-003   0.0000000000000000     
  -9.6504170839293191E-002   3.6183777846569305E-003   0.0000000000000000     
   0.0000000000000000        0.0000000000000000        0.0000000000000000     
  -4.0459248629180967E-002  -1.0130619382237435E-003   0.0000000000000000     
  -8.0323025695444444E-002  -5.9443723275811929E-003   0.0000000000000000     
 -0.10453233749395781       -7.0695906790799665E-003   0.0000000000000000     
  -9.8028190319888422E-002   3.3356234962723182E-003   0.0000000000000000     
   0.0000000000000000        0.0000000000000000        0.0000000000000000     
  -4.1898573815574353E-002  -3.7260327626792590E-004   0.0000000000000000     
  -8.0261003576009057E-002  -5.3524929835782782E-003   0.0000000000000000     
 -0.10332559879723056       -6.8651225783712628E-003   0.0000000000000000     
  -9.9330668995165489E-002   3.1640544829129075E-003   0.0000000000000000     
   0.0000000000000000        0.0000000000000000        0.0000000000000000     
  -4.3089326326953982E-002   2.2594092936399499E-004   0.0000000000000000     
  -8.0231974238711590E-002  -4.8131937686576908E-003   0.0000000000000000     
 -0.10231673723850393       -6.6770697728568973E-003   0.0000000000000000     
 -0.10023240882956207        3.0746472379745374E-003   0.0000000000000000     
   0.0000000000000000        0.0000000000000000        0.0000000000000000     
  -4.3089326326953982E-002   2.2594092936399499E-004   0.0000000000000000     
  -8.0231974238711590E-002  -4.8131937686576908E-003   0.0000000000000000     
 -0.10231673723850393       -6.6770697728568973E-003   0.0000000000000000     
 -0.10023240882956207        3.0746472379745374E-003   0.0000000000000000     
   0.0000000000000000        0.0000000000000000        0.0000000000000000     
  -4.3930223666624836E-002   8.0374313745753959E-004   0.0000000000000000     
  -8.0237622161553016E-002  -4.3115781672700909E-003   0.0000000000000000     
 -0.10158256383223069       -6.5109797804278006E-003   0.0000000000000000     
 -0.10062541702610402        3.0405224317394956E-003   0.0000000000000000     
   0.0000000000000000        0.0000000000000000        0.0000000000000000     
  -4.4508574140151885E-002   1.3785809596540313E-003   0.0000000000000000     
  -8.0253194457060306E-002  -3.8336884606537149E-003   0.0000000000000000     
 -0.10104284798098115       -6.3682692901256294E-003   0.0000000000000000     
 -0.10068652174217030        3.0433774420358978E-003   0.0000000000000000     
   0.0000000000000000        0.0000000000000000        0.0000000000000000     
  -4.4958833753665099E-002   1.9673832958087426E-003   0.0000000000000000     
  -8.0247328896392120E-002  -3.3658016292437091E-003   0.0000000000000000     
 -0.10057809868435511       -6.2493222837797331E-003   0.0000000000000000     
 -0.10066375637372793        3.0670538235783073E-003   0.0000000000000000     
   0.0000000000000000        0.0000000000000000        0.0000000000000000     
  -4.5415458513294447E-002   2.5870790457769451E-003   0.0000000000000000     
  -8.0188663250707046E-002  -2.8941946534752142E-003   0.0000000000000000     
 -0.10006882494195218       -6.1545227432194434E-003   0.0000000000000000     
 -0.10080515431674411        3.0953931310812918E-003   0.0000000000000000     
   0.0000000000000000        0.0000000000000000        0.0000000000000000     
  -4.5415458513294447E-002   2.5870790457769451E-003   0.0000000000000000     
  -8.0188663250707046E-002  -2.8941946534752142E-003   0.0000000000000000     
 -0.10006882494195218       -6.1545227432194434E-003   0.0000000000000000     
 -0.10080515431674411        3.0953931310812918E-003   0.0000000000000000     
   0.0000000000000000        0.0000000000000000        0.0000000000000000     
  -4.5970474379891955E-002   3.2486568870652740E-003   0.0000000000000000     
  -8.0054347420682265E-002  -2.4102580119473305E-003   0.0000000000000000     
  -9.9432270421960164E-002  -6.0840238907575476E-003   0.0000000000000000     
 -0.10128489468331488        3.1200800569148907E-003   0.0000000000000000     
   0.0000000000000000        0.0000000000000000        0.0000000000000000     
  -4.6546187133198032E-002   3.9393446077858260E-003   0.0000000000000000     
  -7.9855579825069314E-002  -1.9258361759150174E-003   0.0000000000000000     
  -9.8732617466919026E-002  -6.0370559106405946E-003   0.0000000000000000     
 -0.10198173945005236        3.1641718440710369E-003   0.0000000000000000     
   0.0000000000000000        0.0000000000000000        0.0000000000000000     
  -4.7022472507675120E-002   4.6404297737020674E-003   0.0000000000000000     
  -7.9612071012138297E-002  -1.4578871147971953E-003   0.0000000000000000     
  -9.8070783087956692E-002  -6.0126182275985788E-003   0.0000000000000000     
 -0.10270059630969748        3.2585688731971360E-003   0.0000000000000000     
   0.0000000000000000        0.0000000000000000        0.0000000000000000     
  -4.7279206237785670E-002   5.3331999505774512E-003   0.0000000000000000     
  -7.9343531530159342E-002  -1.0233687980127871E-003   0.0000000000000000     
  -9.7547684296201198E-002  -6.0097102663614855E-003   0.0000000000000000     
 -0.10324637295499134        3.4341715249405916E-003   0.0000000000000000     
   0.0000000000000000        0.0000000000000000        0.0000000000000000     
  -4.7279206237785670E-002   5.3331999505774512E-003   0.0000000000000000     
  -7.9343531530159342E-002  -1.0233687980127871E-003   0.0000000000000000     
  -9.7547684296201198E-002  -6.0097102663614855E-003   0.0000000000000000     
 -0.10324637295499134        3.4341715249405916E-003   0.0000000000000000     
   0.0000000000000000        0.0000000000000000        0.0000000000000000     
  -4.7233595831083254E-002   6.0033616168620090E-003   0.0000000000000000     
  -7.9065549343684705E-002  -6.3430057922004115E-004   0.0000000000000000     
  -9.7234790276478036E-002  -6.0272613126934899E-003   0.0000000000000000     
 -0.10348024836813707        3.7102046919943238E-003   0.0000000000000000     
   0.0000000000000000        0.0000000000000000        0.0000000000000000     
  -4.6952175887485861E-002   6.6542969017520191E-003   0.0000000000000000     
  -7.8777222082394988E-002  -2.8294734903451139E-004   0.0000000000000000     
  -9.7085778908403253E-002  -6.0639200964954657E-003   0.0000000000000000     
 -0.10348848668918667        4.0591913152332997E-003   0.0000000000000000     
   0.0000000000000000        0.0000000000000000        0.0000000000000000     
  -4.6538812780002603E-002   7.2938068471303363E-003   0.0000000000000000     
  -7.8473524792252947E-002   4.3364617688911250E-005   0.0000000000000000     
  -9.7024880245290393E-002  -6.1182652087024706E-003   0.0000000000000000     
 -0.10341362334765412        4.4419788475779974E-003   0.0000000000000000     
   0.0000000000000000        0.0000000000000000        0.0000000000000000     
  -4.6097372881642576E-002   7.9296924948798007E-003   0.0000000000000000     
  -7.8149432519221421E-002   3.5730904609534650E-004   0.0000000000000000     
  -9.6976324340452960E-002  -6.1888752402495572E-003   0.0000000000000000     
 -0.10339819377305355        4.8194147419488974E-003   0.0000000000000000     
   0.0000000000000000        0.0000000000000000        0.0000000000000000     
  -4.6097372881642576E-002   7.9296924948798007E-003   0.0000000000000000     
  -7.8149432519221421E-002   3.5730904609534650E-004   0.0000000000000000     
  -9.6976324340452960E-002  -6.1888752402495572E-003   0.0000000000000000     
 -0.10339819377305355        4.8194147419488974E-003   0.0000000000000000     
   0.0000000000000000        0.0000000000000000        0.0000000000000000     
  -4.5704157372635376E-002   8.5712866114754909E-003   0.0000000000000000     
  -7.7801707095831729E-002   6.7257146271030405E-004   0.0000000000000000     
  -9.6886473387995525E-002  -6.2734678454950529E-003   0.0000000000000000     
 -0.10355228046753320        5.1558462876599466E-003   0.0000000000000000     
   0.0000000000000000        0.0000000000000000        0.0000000000000000     
  -4.5325206662092513E-002   9.2340488617614312E-003   0.0000000000000000     
  -7.7434257500889531E-002   1.0068845995808856E-003   0.0000000000000000     
  -9.6790218145186319E-002  -6.3663169324903604E-003   0.0000000000000000     
 -0.10385615422377817        5.4296201195989779E-003   0.0000000000000000     
   0.0000000000000000        0.0000000000000000        0.0000000000000000     
  -4.4898995966345986E-002   9.9349706351738610E-003   0.0000000000000000     
  -7.7052779499769117E-002   1.3789929901345862E-003   0.0000000000000000     
  -9.6744581510084610E-002  -6.4608354727101634E-003   0.0000000000000000     
 -0.10425763290710759        5.6225827090472837E-003   0.0000000000000000     
   0.0000000000000000        0.0000000000000000        0.0000000000000000     
  -4.4364000501727806E-002   1.0691043321149028E-002   0.0000000000000000     
  -7.6662968857844849E-002   1.8076411677989033E-003   0.0000000000000000     
  -9.6806586380749640E-002  -6.5504364376291349E-003   0.0000000000000000     
 -0.10470453438284073        5.7165805272861641E-003   0.0000000000000000     
   0.0000000000000000        0.0000000000000000        0.0000000000000000     
  -4.4364000501727806E-002   1.0691043321149028E-002   0.0000000000000000     
  -7.6662968857844849E-002   1.8076411677989033E-003   0.0000000000000000     
  -9.6806586380749640E-002  -6.5504364376291349E-003   0.0000000000000000     
 -0.10470453438284073        5.7165805272861641E-003   0.0000000000000000     
   0.0000000000000000        0.0000000000000000        0.0000000000000000     
  -4.3683146841478275E-002   1.1517264445014476E-002   0.0000000000000000     
  -7.6269993809261194E-002   2.3031046823707223E-003   0.0000000000000000     
  -9.7012509997304333E-002  -6.6324713285515575E-003   0.0000000000000000     
 -0.10516266449956314        5.7205443716273488E-003   0.0000000000000000     
   0.0000000000000000        0.0000000000000000        0.0000000000000000     
  -4.2917166986470835E-002   1.2420656075662895E-002   0.0000000000000000     
  -7.5876912463243837E-002   2.8417831491244845E-003   0.0000000000000000     
  -9.7315646968126390E-002  -6.7200457661000957E-003   0.0000000000000000     
 -0.10566978103892599        5.7517423435043003E-003   0.0000000000000000     
   0.0000000000000000        0.0000000000000000        0.0000000000000000     
  -4.2151244294487203E-002   1.3406246417878289E-002   0.0000000000000000     
  -7.5486255397788568E-002   3.3916071997040177E-003   0.0000000000000000     
  -9.7648546243657347E-002  -6.8302039007270320E-003   0.0000000000000000     
 -0.10628162976584671        5.9545268703809131E-003   0.0000000000000000     
   0.0000000000000000        0.0000000000000000        0.0000000000000000     
  -4.1470562123309129E-002   1.4479063676444644E-002   0.0000000000000000     
  -7.5100553190891345E-002   3.9205074657531515E-003   0.0000000000000000     
  -9.7943756774338600E-002  -6.9799898828846428E-003   0.0000000000000000     
 -0.10705395644524274        6.4732503797210765E-003   0.0000000000000000     
   0.0000000000000000        0.0000000000000000        0.0000000000000000     
  -4.1470562123309129E-002   1.4479063676444644E-002   0.0000000000000000     
  -7.5100553190891345E-002   3.9205074657531515E-003   0.0000000000000000     
  -9.7943756774338600E-002  -6.9799898828846428E-003   0.0000000000000000     
 -0.10705395644524274        6.4732503797210765E-003   0.0000000000000000     
   0.0000000000000000        0.0000000000000000        0.0000000000000000     
  -4.0922468054460120E-002   1.5621796913088223E-002   0.0000000000000000     
  -7.4717684017527278E-002   4.4064950015660570E-003   0.0000000000000000     
  -9.8156880335387151E-002  -7.1685827231412532E-003   0.0000000000000000     
 -0.10801128945422536        7.3738867503915151E-003   0.0000000000000000     
   0.0000000000000000        0.0000000000000000        0.0000000000000000     
  -4.0402966564430771E-002   1.6727778617304394E-002   0.0000000000000000     
  -7.4316916440588590E-002   4.8679025520382462E-003   0.0000000000000000     
  -9.8335730001122404E-002  -7.3237008725294556E-003   0.0000000000000000     
 -0.10905328761868102        8.4088956668702704E-003   0.0000000000000000     
   0.0000000000000000        0.0000000000000000        0.0000000000000000     
  -3.9770226353453453E-002   1.7668002135530804E-002   0.0000000000000000     
  -7.3872866619946839E-002   5.3331432847155752E-003   0.0000000000000000     
  -9.8551171670639273E-002  -7.3551976421978946E-003   0.0000000000000000     
 -0.11004839237668995        9.2523582650382019E-003   0.0000000000000000     
   0.0000000000000000        0.0000000000000000        0.0000000000000000     
  -3.8882416121760605E-002   1.8313460814205106E-002   0.0000000000000000     
  -7.3360150715473485E-002   5.8306303671438915E-003   0.0000000000000000     
  -9.8874071243032727E-002  -7.1729263432952252E-003   0.0000000000000000     
 -0.11086504516633242        9.5783556807761856E-003   0.0000000000000000     
 </DataArray>
 </PointData>
 </Piece>
 <Piece  NumberOfPoints="           200 "  NumberOfCells="          128 ">
 <Points>
 <DataArray  type="Float64" NumberOfComponents="3"  format="ascii" >
   0.0000000000000000        0.0000000000000000        0.0000000000000000     
   2.5000000000000000        0.0000000000000000        0.0000000000000000     
   5.0000000000000000        0.0000000000000000        0.0000000000000000     
   7.5000000000000000        0.0000000000000000        0.0000000000000000     
   10.000000000000000        0.0000000000000000        0.0000000000000000     
   0.0000000000000000       0.15625000000000000        0.0000000000000000     
   2.5000000000000000       0.15625000000000000        0.0000000000000000     
   5.0000000000000000       0.15624999999999997        0.0000000000000000     
   7.5000000000000000       0.15625000000000003        0.0000000000000000     
   10.000000000000000       0.15625000000000000        0.0000000000000000     
   0.0000000000000000       0.31250000000000006        0.0000000000000000     
   2.5000000000000000       0.31250000000000000        0.0000000000000000     
   5.0000000000000000       0.31250000000000006        0.0000000000000000     
   7.4999999999999982       0.31249999999999994        0.0000000000000000     
   10.000000000000000       0.31250000000000006        0.0000000000000000     
   0.0000000000000000       0.46875000000000000        0.0000000000000000     
   2.5000000000000000       0.46875000000000000        0.0000000000000000     
   5.0000000000000000       0.46875000000000000        0.0000000000000000     
   7.5000000000000000       0.46875000000000000        0.0000000000000000     
   10.000000000000000       0.46875000000000000        0.0000000000000000     
   0.0000000000000000       0.62500000000000011        0.0000000000000000     
   2.5000000000000000       0.62500000000000000        0.0000000000000000     
   5.0000000000000009       0.62500000000000000        0.0000000000000000     
   7.4999999999999991       0.62500000000000000        0.0000000000000000     
   10.000000000000000       0.62500000000000011        0.0000000000000000     
   0.0000000000000000       0.62500000000000011        0.0000000000000000     
   2.5000000000000000       0.62500000000000000        0.0000000000000000     
   5.0000000000000009       0.62500000000000000        0.0000000000000000     
   7.4999999999999991       0.62500000000000000        0.0000000000000000     
   10.000000000000000       0.62500000000000011        0.0000000000000000     
   0.0000000000000000       0.78124999999999989        0.0000000000000000     
   2.5000000000000000       0.78125000000000011        0.0000000000000000     
   5.0000000000000009       0.78125000000000011        0.0000000000000000     
   7.5000000000000000       0.78125000000000000        0.0000000000000000     
   9.9999999999999982       0.78124999999999989        0.0000000000000000     
   0.0000000000000000       0.93749999999999989        0.0000000000000000     
   2.5000000000000000       0.93749999999999989        0.0000000000000000     
   5.0000000000000000       0.93750000000000000        0.0000000000000000     
   7.4999999999999991       0.93749999999999989        0.0000000000000000     
   10.000000000000000       0.93749999999999989        0.0000000000000000     
   0.0000000000000000        1.0937499999999998        0.0000000000000000     
   2.5000000000000000        1.0937500000000000        0.0000000000000000     
   5.0000000000000009        1.0937500000000004        0.0000000000000000     
   7.5000000000000000        1.0937500000000000        0.0000000000000000     
   10.000000000000000        1.0937499999999998        0.0000000000000000     
   0.0000000000000000        1.2500000000000002        0.0000000000000000     
   2.4999999999999996        1.2500000000000000        0.0000000000000000     
   4.9999999999999991        1.2499999999999998        0.0000000000000000     
   7.5000000000000009        1.2500000000000002        0.0000000000000000     