 <VTKFile type="UnstructuredGrid"  version="0.1"   >
 <UnstructuredGrid>
 <Piece  NumberOfPoints="           200 "  NumberOfCells="          128 ">
 <Points>
 <DataArray  type="Float64" NumberOfComponents="3"  format="ascii" >
  -10.000000000000000        0.0000000000000000        0.0000000000000000     
  -7.5000000000000000        0.0000000000000000        0.0000000000000000     
  -5.0000000000000000        0.0000000000000000        0.0000000000000000     
  -2.4999999999999996        0.0000000000000000        0.0000000000000000     
   0.0000000000000000        0.0000000000000000        0.0000000000000000     
  -10.000000000000000       0.15625000000000000        0.0000000000000000     
  -7.5000000000000000       0.15625000000000000        0.0000000000000000     
  -5.0000000000000000       0.15624999999999997        0.0000000000000000     
  -2.5000000000000000       0.15625000000000003        0.0000000000000000     
   0.0000000000000000       0.15625000000000000        0.0000000000000000     
  -10.000000000000000       0.31250000000000006        0.0000000000000000     
  -7.5000000000000000       0.31250000000000000        0.0000000000000000     
  -5.0000000000000000       0.31250000000000006        0.0000000000000000     
  -2.4999999999999996       0.31249999999999994        0.0000000000000000     
   0.0000000000000000       0.31250000000000006        0.0000000000000000     
  -10.000000000000000       0.46875000000000000        0.0000000000000000     
  -7.5000000000000000       0.46875000000000000        0.0000000000000000     
  -5.0000000000000000       0.46875000000000000        0.0000000000000000     
  -2.4999999999999996       0.46875000000000000        0.0000000000000000     
   0.0000000000000000       0.46875000000000000        0.0000000000000000     
  -10.000000000000000       0.62500000000000011        0.0000000000000000     
  -7.5000000000000000       0.62500000000000000        0.0000000000000000     
  -5.0000000000000009       0.62500000000000000        0.0000000000000000     
  -2.4999999999999996       0.62500000000000000        0.0000000000000000     
   0.0000000000000000       0.62500000000000011        0.0000000000000000     
  -10.000000000000000       0.62500000000000011        0.0000000000000000     
  -7.5000000000000000       0.62500000000000000        0.0000000000000000     
  -5.0000000000000009       0.62500000000000000        0.0000000000000000     
  -2.4999999999999996       0.62500000000000000        0.0000000000000000     
   0.0000000000000000       0.62500000000000011        0.0000000000000000     
  -9.9999999999999982       0.78124999999999989        0.0000000000000000     
  -7.5000000000000000       0.78125000000000011        0.0000000000000000     
  -5.0000000000000009       0.78125000000000011        0.0000000000000000     
  -2.4999999999999996       0.78125000000000000        0.0000000000000000     
   0.0000000000000000       0.78124999999999989        0.0000000000000000     
  -10.000000000000000       0.93749999999999989        0.0000000000000000     
  -7.4999999999999991       0.93749999999999989        0.0000000000000000     
  -5.0000000000000000       0.93750000000000000        0.0000000000000000     
  -2.5000000000000000       0.93749999999999989        0.0000000000000000     
   0.0000000000000000       0.93749999999999989        0.0000000000000000     
  -10.000000000000000        1.0937499999999998        0.0000000000000000     
  -7.5000000000000000        1.0937500000000000        0.0000000000000000     
  -5.0000000000000009        1.0937500000000004        0.0000000000000000     
  -2.5000000000000000        1.0937500000000000        0.0000000000000000     
   0.0000000000000000        1.0937499999999998        0.0000000000000000     
  -10.000000000000004        1.2500000000000002        0.0000000000000000     
  -7.5000000000000000        1.2500000000000000        0.0000000000000000     
  -4.9999999999999991        1.2499999999999998        0.0000000000000000     
  -2.5000000000000000        1.2500000000000002        0.0000000000000000     
   0.0000000000000000        1.2500000000000002        0.0000000000000000     
  -10.000000000000004        1.2500000000000002        0.0000000000000000     
  -7.5000000000000000        1.2500000000000000        0.0000000000000000     
  -4.9999999999999991        1.2499999999999998        0.0000000000000000     
  -2.5000000000000000        1.2500000000000002        0.0000000000000000     
   0.0000000000000000        1.2500000000000002        0.0000000000000000     
  -9.9999999999999982        1.4062499999999998        0.0000000000000000     
  -7.4999999999999991        1.4062500000000000        0.0000000000000000     
  -5.0000000000000009        1.4062500000000002        0.0000000000000000     
  -2.5000000000000000        1.4062500000000000        0.0000000000000000     
   0.0000000000000000        1.4062499999999998        0.0000000000000000     
  -10.000000000000002        1.5625000000000002        0.0000000000000000     
  -7.4999999999999982        1.5624999999999998        0.0000000000000000     
  -5.0000000000000009        1.5625000000000004        0.0000000000000000     
  -2.5000000000000004        1.5625000000000000        0.0000000000000000     
   0.0000000000000000        1.5625000000000002        0.0000000000000000     
  -10.000000000000002        1.7187500000000002        0.0000000000000000     
  -7.5000000000000000        1.7187500000000000        0.0000000000000000     
  -4.9999999999999982        1.7187500000000000        0.0000000000000000     
  -2.4999999999999996        1.7187500000000002        0.0000000000000000     
   0.0000000000000000        1.7187500000000002        0.0000000000000000     
  -10.000000000000004        1.8750000000000004        0.0000000000000000     
  -7.5000000000000000        1.8750000000000000        0.0000000000000000     
  -4.9999999999999991        1.8750000000000000        0.0000000000000000     
  -2.5000000000000000        1.8750000000000002        0.0000000000000000     
   0.0000000000000000        1.8750000000000004        0.0000000000000000     
  -10.000000000000004        1.8750000000000004        0.0000000000000000     
  -7.5000000000000000        1.8750000000000000        0.0000000000000000     
  -4.9999999999999991        1.8750000000000000        0.0000000000000000     
  -2.5000000000000000        1.8750000000000002        0.0000000000000000     
   0.0000000000000000        1.8750000000000004        0.0000000000000000     
  -9.9999999999999982        2.0312500000000000        0.0000000000000000     
  -7.4999999999999991        2.0312500000000000        0.0000000000000000     
  -5.0000000000000009        2.0312500000000004        0.0000000000000000     
  -2.5000000000000000        2.0312500000000000        0.0000000000000000     
   0.0000000000000000        2.0312500000000000        0.0000000000000000     
  -10.000000000000002        2.1875000000000004        0.0000000000000000     
  -7.4999999999999982        2.1874999999999996        0.0000000000000000     
  -5.0000000000000009        2.1875000000000004        0.0000000000000000     
  -2.5000000000000004        2.1875000000000004        0.0000000000000000     
   0.0000000000000000        2.1875000000000004        0.0000000000000000     
  -10.000000000000002        2.3437500000000004        0.0000000000000000     
  -7.5000000000000000        2.3437500000000000        0.0000000000000000     
  -4.9999999999999982        2.3437499999999996        0.0000000000000000     
  -2.4999999999999996        2.3437500000000004        0.0000000000000000     
   0.0000000000000000        2.3437500000000004        0.0000000000000000     
  -10.000000000000004        2.5000000000000004        0.0000000000000000     
  -7.5000000000000000        2.5000000000000000        0.0000000000000000     
  -4.9999999999999991        2.5000000000000000        0.0000000000000000     
  -2.5000000000000000        2.5000000000000000        0.0000000000000000     
   0.0000000000000000        2.5000000000000004        0.0000000000000000     
  -10.000000000000004        2.5000000000000004        0.0000000000000000     
  -7.5000000000000000        2.5000000000000000        0.0000000000000000     
  -4.9999999999999991        2.5000000000000000        0.0000000000000000     
  -2.5000000000000000        2.5000000000000000        0.0000000000000000     
   0.0000000000000000        2.5000000000000004        0.0000000000000000     
  -9.9999999999999982        2.6562500000000000        0.0000000000000000     
  -7.4999999999999991        2.6562500000000000        0.0000000000000000     
  -5.0000000000000009        2.6562500000000004        0.0000000000000000     
  -2.5000000000000000        2.6562500000000000        0.0000000000000000     
   0.0000000000000000        2.6562500000000000        0.0000000000000000     
  -10.000000000000002        2.8125000000000004        0.0000000000000000     
  -7.4999999999999982        2.8124999999999996        0.0000000000000000     
  -5.0000000000000009        2.8125000000000004        0.0000000000000000     
  -2.5000000000000004        2.8125000000000000        0.0000000000000000     
   0.0000000000000000        2.8125000000000004        0.0000000000000000     
  -10.000000000000002        2.9687500000000000        0.0000000000000000     
  -7.5000000000000000        2.9687499999999996        0.0000000000000000     
  -4.9999999999999982        2.9687500000000000        0.0000000000000000     
  -2.4999999999999996        2.9687500000000004        0.0000000000000000     
   0.0000000000000000        2.9687500000000000        0.0000000000000000     
  -10.000000000000004        3.1250000000000000        0.0000000000000000     
  -7.5000000000000000        3.1250000000000000        0.0000000000000000     
  -4.9999999999999991        3.1250000000000000        0.0000000000000000     
[...]
 <PointData>
 <DataArray  type="Float64" Name="disp" NumberOfComponents="3" format="ascii">
   0.0000000000000000        0.0000000000000000        0.0000000000000000     
   3.9654880436582876E-003   2.5665139864155827E-002   0.0000000000000000     
   1.8484634528164394E-002  -9.4304594368269726E-003   0.0000000000000000     
   3.9659658569936654E-002  -4.1126949492692848E-002   0.0000000000000000     
   6.3592779285393392E-002  -5.2644818931862512E-003   0.0000000000000000     
   0.0000000000000000        0.0000000000000000        0.0000000000000000     
   5.0857776403329764E-003   2.4973229642316491E-002   0.0000000000000000     
   2.0306021276141523E-002  -9.7924342710218951E-003   0.0000000000000000     
   4.0378979887988865E-002  -4.1231756099861440E-002   0.0000000000000000     
   6.0022902456438154E-002  -6.2795002040483524E-003   0.0000000000000000     
   0.0000000000000000        0.0000000000000000        0.0000000000000000     
   6.2759426220517457E-003   2.4023913852977266E-002   0.0000000000000000     
   2.1864606909645645E-002  -1.0241439787948104E-002   0.0000000000000000     
   4.0919450074184550E-002  -4.1240923032310875E-002   0.0000000000000000     
   5.7593929327071330E-002  -7.4193979896459081E-003   0.0000000000000000     
   0.0000000000000000        0.0000000000000000        0.0000000000000000     
   7.4957339110248147E-003   2.3013192853845815E-002   0.0000000000000000     
   2.3223921397051841E-002  -1.0687055597652886E-002   0.0000000000000000     
   4.1321683135403832E-002  -4.1189828905979373E-002   0.0000000000000000     
   5.5926139803403482E-002  -8.5842106226169477E-003   0.0000000000000000     
   0.0000000000000000        0.0000000000000000        0.0000000000000000     
   8.7049024294624036E-003   2.2137067002629841E-002   0.0000000000000000     
   2.4447494706735247E-002  -1.1038861310183565E-002   0.0000000000000000     
   4.1626293078526763E-002  -4.1113852336805055E-002   0.0000000000000000     
   5.4639813791545221E-002  -9.6739734755995066E-003   0.0000000000000000     
   0.0000000000000000        0.0000000000000000        0.0000000000000000     
   8.7049024294624036E-003   2.2137067002629841E-002   0.0000000000000000     
   2.4447494706735247E-002  -1.1038861310183565E-002   0.0000000000000000     
   4.1626293078526763E-002  -4.1113852336805055E-002   0.0000000000000000     
   5.4639813791545221E-002  -9.6739734755995066E-003   0.0000000000000000     
   0.0000000000000000        0.0000000000000000        0.0000000000000000     
   9.8656031649028576E-003   2.1536922018885390E-002   0.0000000000000000     
   2.5589725675520841E-002  -1.1234929097096839E-002   0.0000000000000000     
   4.1874322862317258E-002  -4.1040939134548385E-002   0.0000000000000000     
   5.3421350055755421E-002  -1.0606493880070974E-002   0.0000000000000000     
   0.0000000000000000        0.0000000000000000        0.0000000000000000     
   1.0949607366196995E-002   2.1135685069562076E-002   0.0000000000000000     
   2.6668488614033228E-002  -1.1327301375986944E-002   0.0000000000000000     
   4.2108531253074420E-002  -4.0969303884259047E-002   0.0000000000000000     
   5.2221622792886287E-002  -1.1370667002866170E-002   0.0000000000000000     
   0.0000000000000000        0.0000000000000000        0.0000000000000000     
   1.1931090347523760E-002   2.0801668683457914E-002   0.0000000000000000     
   2.7692526701346882E-002  -1.1396513125957538E-002   0.0000000000000000     
   4.2372105968981139E-002  -4.0889728364809044E-002   0.0000000000000000     
   5.1057625057938365E-002  -1.1973159969659268E-002   0.0000000000000000     
   0.0000000000000000        0.0000000000000000        0.0000000000000000     
   1.2784227423062107E-002   2.0403185389370908E-002   0.0000000000000000     
   2.8670583116536259E-002  -1.1523099326112235E-002   0.0000000000000000     
   4.2708234728220329E-002  -4.0792994355070375E-002   0.0000000000000000     
   4.9946349905912166E-002  -1.2420639906124445E-002   0.0000000000000000     
   0.0000000000000000        0.0000000000000000        0.0000000000000000     
   1.2784227423062107E-002   2.0403185389370908E-002   0.0000000000000000     
   2.8670583116536259E-002  -1.1523099326112235E-002   0.0000000000000000     
   4.2708234728220329E-002  -4.0792994355070375E-002   0.0000000000000000     
   4.9946349905912166E-002  -1.2420639906124445E-002   0.0000000000000000     
   0.0000000000000000        0.0000000000000000        0.0000000000000000     
   1.3500772964168196E-002   1.9836432080036204E-002   0.0000000000000000     
   2.9609263759086530E-002  -1.1767320858531246E-002   0.0000000000000000     
   4.3139655265294875E-002  -4.0670534937464115E-002   0.0000000000000000     
   4.8906130363333106E-002  -1.2732486278524179E-002   0.0000000000000000     
   0.0000000000000000        0.0000000000000000        0.0000000000000000     
   1.4142797570907107E-002   1.9109143103937562E-002   0.0000000000000000     
   3.0506625410125408E-002  -1.2108342217200993E-002   0.0000000000000000     
   4.3607305379987561E-002  -4.0516388408607600E-002   0.0000000000000000     
   4.7960659342826215E-002  -1.2978927915474187E-002   0.0000000000000000     
   0.0000000000000000        0.0000000000000000        0.0000000000000000     
   1.4789950900521123E-002   1.8256937173495913E-002   0.0000000000000000     
   3.1358587571191303E-002  -1.2505053799084481E-002   0.0000000000000000     
   4.4031672888401180E-002  -4.0325244368667267E-002   0.0000000000000000     
   4.7134969728541386E-002  -1.3242905986178487E-002   0.0000000000000000     
   0.0000000000000000        0.0000000000000000        0.0000000000000000     
   1.5521882610252540E-002   1.7315433001132169E-002   0.0000000000000000     
   3.2161069743822608E-002  -1.2916346001144705E-002   0.0000000000000000     
   4.4333245606638511E-002  -4.0091792417809510E-002   0.0000000000000000     
   4.6454094404628540E-002  -1.3607361659841107E-002   0.0000000000000000     
   0.0000000000000000        0.0000000000000000        0.0000000000000000     
   1.5521882610252540E-002   1.7315433001132169E-002   0.0000000000000000     
   3.2161069743822608E-002  -1.2916346001144705E-002   0.0000000000000000     
   4.4333245606638511E-002  -4.0091792417809510E-002   0.0000000000000000     
   4.6454094404628540E-002  -1.3607361659841107E-002   0.0000000000000000     
   0.0000000000000000        0.0000000000000000        0.0000000000000000     
   1.6387802298440061E-002   1.6323542319276952E-002   0.0000000000000000     
   3.2913230363279880E-002  -1.3307293147082618E-002   0.0000000000000000     
   4.4463208578006390E-002  -3.9815787241480667E-002   0.0000000000000000     
   4.5924661326106508E-002  -1.4125220806319137E-002   0.0000000000000000     
   0.0000000000000000        0.0000000000000000        0.0000000000000000     
   1.7315159327808062E-002   1.5333348940399750E-002   0.0000000000000000     
   3.3627183599712271E-002  -1.3667705267551029E-002   0.0000000000000000     
   4.4495535754627849E-002  -3.9517243866246790E-002   0.0000000000000000     
   4.5479678731469991E-002  -1.4729348098081985E-002   0.0000000000000000     
   0.0000000000000000        0.0000000000000000        0.0000000000000000     
   1.8200963002177314E-002   1.4400229696979752E-002   0.0000000000000000     
   3.4318282556991105E-002  -1.3993576319940703E-002   0.0000000000000000     
   4.4534898315829984E-002  -3.9221242403953839E-002   0.0000000000000000     
   4.5033749930082523E-002  -1.5322592908252101E-002   0.0000000000000000     
   0.0000000000000000        0.0000000000000000        0.0000000000000000     
   1.8942222625368599E-002   1.3579561421496156E-002   0.0000000000000000     
   3.5001880338987677E-002  -1.4280900261642424E-002   0.0000000000000000     
   4.4685967440939868E-002  -3.8952862966447808E-002   0.0000000000000000     
   4.4501478231307741E-002  -1.5807804609951969E-002   0.0000000000000000     
   0.0000000000000000        0.0000000000000000        0.0000000000000000     
   1.8942222625368599E-002   1.3579561421496156E-002   0.0000000000000000     
   3.5001880338987677E-002  -1.4280900261642424E-002   0.0000000000000000     
   4.4685967440939868E-002  -3.8952862966447808E-002   0.0000000000000000     
   4.4501478231307741E-002  -1.5807804609951969E-002   0.0000000000000000     
   0.0000000000000000        0.0000000000000000        0.0000000000000000     
   1.9475475256889356E-002   1.2906763157661058E-002   0.0000000000000000     
   3.5689920038966726E-002  -1.4532013864008151E-002   0.0000000000000000     
   4.5016624047075238E-002  -3.8732068067957641E-002   0.0000000000000000     
   4.3828876982057959E-002  -1.6109136457137407E-002   0.0000000000000000     
   0.0000000000000000        0.0000000000000000        0.0000000000000000     
   1.9895368978993615E-002   1.2337422794118187E-002   0.0000000000000000     
   3.6380704707766574E-002  -1.4774625154234578E-002   0.0000000000000000     
   4.5447588002516373E-002  -3.8558349832244466E-002   0.0000000000000000     
   4.3087599679440571E-002  -1.6235957227097687E-002   0.0000000000000000     
   0.0000000000000000        0.0000000000000000        0.0000000000000000     
   2.0336079629622084E-002   1.1807170430744177E-002   0.0000000000000000     
   3.7069127385618961E-002  -1.5042784973479589E-002   0.0000000000000000     
   4.5862788913334271E-002  -3.8426082785452419E-002   0.0000000000000000     
   4.2380709858111584E-002  -1.6218939577955411E-002   0.0000000000000000     
   0.0000000000000000        0.0000000000000000        0.0000000000000000     
   2.0931783046715439E-002   1.1251636167415657E-002   0.0000000000000000     
   3.7750081112755657E-002  -1.5370544162901092E-002   0.0000000000000000     
   4.6146156385599844E-002  -3.8329641453725610E-002   0.0000000000000000     
   4.1811271052727118E-002  -1.6088756167833212E-002   0.0000000000000000     
   0.0000000000000000        0.0000000000000000        0.0000000000000000     
   2.0931783046715439E-002   1.1251636167415657E-002   0.0000000000000000     
   3.7750081112755657E-002  -1.5370544162901092E-002   0.0000000000000000     
   4.6146156385599844E-002  -3.8329641453725610E-002   0.0000000000000000     
   4.1811271052727118E-002  -1.6088756167833212E-002   0.0000000000000000     
   0.0000000000000000        0.0000000000000000        0.0000000000000000     
   2.1770645417954509E-002   1.0624334132062322E-002   0.0000000000000000     
   3.8421127843584195E-002  -1.5778029435501828E-002   0.0000000000000000     
   4.6222052854185035E-002  -3.8262511607503095E-002   0.0000000000000000     
   4.1444026027053063E-002  -1.5884533288752160E-002   0.0000000000000000     
   0.0000000000000000        0.0000000000000000        0.0000000000000000     
   2.2756794329980654E-002   9.9503145648260523E-003   0.0000000000000000     
   3.9090505189215280E-002  -1.6229670991663961E-002   0.0000000000000000     
   4.6176572069165915E-002  -3.8214623994403792E-002   0.0000000000000000     
   4.1190434461294660E-002  -1.5679211768327157E-002   0.0000000000000000     
   0.0000000000000000        0.0000000000000000        0.0000000000000000     
   2.3748347719175347E-002   9.2725117339018184E-003   0.0000000000000000     
   3.9769119674935426E-002  -1.6675974903614540E-002   0.0000000000000000     
   4.6136240609419517E-002  -3.8175020606341536E-002   0.0000000000000000     
   4.0923635264766903E-002  -1.5554186068071553E-002   0.0000000000000000     
   0.0000000000000000        0.0000000000000000        0.0000000000000000     
   2.4603423521920072E-002   8.6338599074845569E-003   0.0000000000000000     
   4.0467877826031132E-002  -1.7067447243580596E-002   0.0000000000000000     
   4.6227585053822851E-002  -3.8132743435230126E-002   0.0000000000000000     
   4.0516767346784874E-002  -1.5590850649498698E-002   0.0000000000000000     
   0.0000000000000000        0.0000000000000000        0.0000000000000000     
   2.4603423521920072E-002   8.6338599074845569E-003   0.0000000000000000     
   4.0467877826031132E-002  -1.7067447243580596E-002   0.0000000000000000     
   4.6227585053822851E-002  -3.8132743435230126E-002   0.0000000000000000     
   4.0516767346784874E-002  -1.5590850649498698E-002   0.0000000000000000     
   0.0000000000000000        0.0000000000000000        0.0000000000000000     
   2.5220850470144690E-002   8.0729922006007575E-003   0.0000000000000000     
   4.1199772587934738E-002  -1.7370466070967577E-002   0.0000000000000000     
   4.6546223993456315E-002  -3.8084172046872942E-002   0.0000000000000000     
   3.9869662326795542E-002  -1.5821922959283308E-002   0.0000000000000000     
   0.0000000000000000        0.0000000000000000        0.0000000000000000     
   2.5662300477972636E-002   7.6113371156030733E-003   0.0000000000000000     
   4.1986142586661827E-002  -1.7614897393894560E-002   0.0000000000000000     
   4.7064144068213548E-002  -3.8055036302631309E-002   0.0000000000000000     
   3.8988922664773752E-002  -1.6085412384745590E-002   0.0000000000000000     
   0.0000000000000000        0.0000000000000000        0.0000000000000000     
   2.6030156255075734E-002   7.2660220016756956E-003   0.0000000000000000     
   4.2850412868373815E-002  -1.7846479207659055E-002   0.0000000000000000     
   4.7722423930191563E-002  -3.8078403637756046E-002   0.0000000000000000     
   3.7907843530826282E-002  -1.6170651298367093E-002   0.0000000000000000     
   0.0000000000000000        0.0000000000000000        0.0000000000000000     
   2.6426800511125795E-002   7.0541742080028145E-003   0.0000000000000000     
   4.3816008479232088E-002  -1.8110949507558566E-002   0.0000000000000000     
   4.8462142231487329E-002  -3.8187341487498021E-002   0.0000000000000000     
   3.6659720095059897E-002  -1.5866972072629378E-002   0.0000000000000000     
   0.0000000000000000        0.0000000000000000        0.0000000000000000     
   2.6426800511125795E-002   7.0541742080028145E-003   0.0000000000000000     
   4.3816008479232088E-002  -1.8110949507558566E-002   0.0000000000000000     
   4.8462142231487329E-002  -3.8187341487498021E-002   0.0000000000000000     
   3.6659720095059897E-002  -1.5866972072629378E-002   0.0000000000000000     
   0.0000000000000000        0.0000000000000000        0.0000000000000000     
   2.6910530746829819E-002   6.9656990587098058E-003   0.0000000000000000     
   4.4902279298518179E-002  -1.8442094667339388E-002   0.0000000000000000     
   4.9247543506753630E-002  -3.8390536293802367E-002   0.0000000000000000     
   3.5218621223224646E-002  -1.5046780936333956E-002   0.0000000000000000     
   0.0000000000000000        0.0000000000000000        0.0000000000000000     
   2.7363303627035544E-002   6.8816137776867735E-003   0.0000000000000000     
   4.6112274537994130E-002  -1.8825894574542926E-002   0.0000000000000000     
   5.0135535820866550E-002  -3.8599150525391701E-002   0.0000000000000000     
   3.3321710563643574E-002  -1.3914779543562137E-002   0.0000000000000000     
   0.0000000000000000        0.0000000000000000        0.0000000000000000     
   2.7622990607625894E-002   6.6557135637650179E-003   0.0000000000000000     
   4.7444968242542046E-002  -1.9236377495159423E-002   0.0000000000000000     
   5.1206193121257911E-002  -3.8699965657682932E-002   0.0000000000000000     
   3.0646925460282998E-002  -1.2758743404715164E-002   0.0000000000000000     
   0.0000000000000000        0.0000000000000000        0.0000000000000000     
   2.7527463144483802E-002   6.1417936157758257E-003   0.0000000000000000     
   4.8899334457044058E-002  -1.9647571695179087E-002   0.0000000000000000     
   5.2539589355359601E-002  -3.8579763166093017E-002   0.0000000000000000     
   2.6872203257109213E-002  -1.1866448030194293E-002   0.0000000000000000     
 </DataArray>
 </PointData>
 </Piece>
 <Piece  NumberOfPoints="           200 "  NumberOfCells="          128 ">
 <Points>
 <DataArray  type="Float64" NumberOfComponents="3"  format="ascii" >
   0.0000000000000000        0.0000000000000000        0.0000000000000000     
   2.5000000000000000        0.0000000000000000        0.0000000000000000     
   5.0000000000000000        0.0000000000000000        0.0000000000000000     
   7.5000000000000000        0.0000000000000000        0.0000000000000000     
   10.000000000000000        0.0000000000000000        0.0000000000000000     
   0.0000000000000000       0.15625000000000000        0.0000000000000000     
   2.5000000000000000       0.15625000000000000        0.0000000000000000     
   5.0000000000000000       0.15624999999999997        0.0000000000000000     
   7.5000000000000000       0.15625000000000003        0.0000000000000000     
   10.000000000000000       0.15625000000000000        0.0000000000000000     
   0.0000000000000000       0.31250000000000006        0.0000000000000000     
   2.5000000000000000       0.31250000000000000        0.0000000000000000     
   5.0000000000000000       0.31250000000000006        0.0000000000000000     
   7.4999999999999982       0.31249999999999994        0.0000000000000000     
   10.000000000000000       0.31250000000000006        0.0000000000000000     
   0.0000000000000000       0.46875000000000000        0.0000000000000000     
   2.5000000000000000       0.46875000000000000        0.0000000000000000     
   5.0000000000000000       0.46875000000000000        0.0000000000000000     
   7.5000000000000000       0.46875000000000000        0.0000000000000000     
   10.000000000000000       0.46875000000000000        0.0000000000000000     
   0.0000000000000000       0.62500000000000011        0.0000000000000000     
   2.5000000000000000       0.62500000000000000        0.0000000000000000     
   5.0000000000000009       0.62500000000000000        0.0000000000000000     
   7.4999999999999991       0.62500000000000000        0.0000000000000000     
   10.000000000000000       0.62500000000000011        0.0000000000000000     
   0.0000000000000000       0.62500000000000011        0.0000000000000000     
   2.5000000000000000       0.62500000000000000        0.0000000000000000     
   5.0000000000000009       0.62500000000000000        0.0000000000000000     
   7.4999999999999991       0.62500000000000000        0.0000000000000000     
   10.000000000000000       0.62500000000000011        0.0000000000000000     
   0.0000000000000000       0.78124999999999989        0.0000000000000000     
   2.5000000000000000       0.78125000000000011        0.0000000000000000     
   5.0000000000000009       0.78125000000000011        0.0000000000000000     
   7.5000000000000000       0.78125000000000000        0.0000000000000000     
   9.9999999999999982       0.78124999999999989        0.0000000000000000     
   0.0000000000000000       0.93749999999999989        0.0000000000000000     
   2.5000000000000000       0.93749999999999989        0.0000000000000000     
   5.0000000000000000       0.93750000000000000        0.0000000000000000     
   7.4999999999999991       0.93749999999999989        0.0000000000000000     
   10.000000000000000       0.93749999999999989        0.0000000000000000     
   0.0000000000000000        1.0937499999999998        0.0000000000000000     
   2.5000000000000000        1.0937500000000000        0.0000000000000000     
   5.0000000000000009        1.0937500000000004        0.0000000000000000     
   7.5000000000000000        1.0937500000000000        0.0000000000000000     
   10.000000000000000        1.0937499999999998        0.0000000000000000     
   0.0000000000000000        1.2500000000000002        0.0000000000000000     
   2.4999999999999996        1.2500000000000000        0.0000000000000000     
   4.9999999999999991        1.2499999999999998        0.0000000000000000     
   7.5000000000000009        1.2500000000000002        0.0000000000000000     