 <VTKFile type="UnstructuredGrid"  version="0.1"   >
 <UnstructuredGrid>
 <Piece  NumberOfPoints="           200 "  NumberOfCells="          128 ">
 <Points>
 <DataArray  type="Float64" NumberOfComponents="3"  format="ascii" >
  -10.000000000000000        0.0000000000000000        0.0000000000000000     
  -7.5000000000000000        0.0000000000000000        0.0000000000000000     
  -5.0000000000000000        0.0000000000000000        0.0000000000000000     
  -2.4999999999999996        0.0000000000000000        0.0000000000000000     
   0.0000000000000000        0.0000000000000000        0.0000000000000000     
  -10.000000000000000       0.15625000000000000        0.0000000000000000     
  -7.5000000000000000       0.15625000000000000        0.0000000000000000     
  -5.0000000000000000       0.15624999999999997        0.0000000000000000     
  -2.5000000000000000       0.15625000000000003        0.0000000000000000     
   0.0000000000000000       0.15625000000000000        0.0000000000000000     
  -10.000000000000000       0.31250000000000006        0.0000000000000000     
  -7.5000000000000000       0.31250000000000000        0.0000000000000000     
  -5.0000000000000000       0.31250000000000006        0.0000000000000000     
  -2.4999999999999996       0.31249999999999994        0.0000000000000000     
   0.0000000000000000       0.31250000000000006        0.0000000000000000     
  -10.000000000000000       0.46875000000000000        0.0000000000000000     
  -7.5000000000000000       0.46875000000000000        0.0000000000000000     
  -5.0000000000000000       0.46875000000000000        0.0000000000000000     
  -2.4999999999999996       0.46875000000000000        0.0000000000000000     
   0.0000000000000000       0.46875000000000000        0.0000000000000000     
  -10.000000000000000       0.62500000000000011        0.0000000000000000     
  -7.5000000000000000       0.62500000000000000        0.0000000000000000     
  -5.0000000000000009       0.62500000000000000        0.0000000000000000     
  -2.4999999999999996       0.62500000000000000        0.0000000000000000     
   0.0000000000000000       0.62500000000000011        0.0000000000000000     
  -10.000000000000000       0.62500000000000011        0.0000000000000000     
  -7.5000000000000000       0.62500000000000000        0.0000000000000000     
  -5.0000000000000009       0.62500000000000000        0.0000000000000000     
  -2.4999999999999996       0.62500000000000000        0.0000000000000000     
   0.0000000000000000       0.62500000000000011        0.0000000000000000     
  -9.9999999999999982       0.78124999999999989        0.0000000000000000     
  -7.5000000000000000       0.78125000000000011        0.0000000000000000     
  -5.0000000000000009       0.78125000000000011        0.0000000000000000     
  -2.4999999999999996       0.78125000000000000        0.0000000000000000     
   0.0000000000000000       0.78124999999999989        0.0000000000000000     
  -10.000000000000000       0.93749999999999989        0.0000000000000000     
  -7.4999999999999991       0.93749999999999989        0.0000000000000000     
  -5.0000000000000000       0.93750000000000000        0.0000000000000000     
  -2.5000000000000000       0.93749999999999989        0.0000000000000000     
   0.0000000000000000       0.93749999999999989        0.0000000000000000     
  -10.000000000000000        1.0937499999999998        0.0000000000000000     
  -7.5000000000000000        1.0937500000000000        0.0000000000000000     
  -5.0000000000000009        1.0937500000000004        0.0000000000000000     
  -2.5000000000000000        1.0937500000000000        0.0000000000000000     
   0.0000000000000000        1.0937499999999998        0.0000000000000000     
  -10.000000000000004        1.2500000000000002        0.0000000000000000     
  -7.5000000000000000        1.2500000000000000        0.0000000000000000     
  -4.9999999999999991        1.2499999999999998        0.0000000000000000     
  -2.5000000000000000        1.2500000000000002        0.0000000000000000     
   0.0000000000000000        1.2500000000000002        0.0000000000000000     
  -10.000000000000004        1.2500000000000002        0.0000000000000000     
  -7.5000000000000000        1.2500000000000000        0.0000000000000000     
  -4.9999999999999991        1.2499999999999998        0.0000000000000000     
  -2.5000000000000000        1.2500000000000002        0.0000000000000000     
   0.0000000000000000        1.2500000000000002        0.0000000000000000     
  -9.9999999999999982        1.4062499999999998        0.0000000000000000     
  -7.4999999999999991        1.4062500000000000        0.0000000000000000     
  -5.0000000000000009        1.4062500000000002        0.0000000000000000     
  -2.5000000000000000        1.4062500000000000        0.0000000000000000     
   0.0000000000000000        1.4062499999999998        0.0000000000000000     
  -10.000000000000002        1.5625000000000002        0.0000000000000000     
  -7.4999999999999982        1.5624999999999998        0.0000000000000000     
  -5.0000000000000009        1.5625000000000004        0.0000000000000000     
  -2.5000000000000004        1.5625000000000000        0.0000000000000000     
   0.0000000000000000        1.5625000000000002        0.0000000000000000     
  -10.000000000000002        1.7187500000000002        0.0000000000000000     
  -7.5000000000000000        1.7187500000000000        0.0000000000000000     
  -4.9999999999999982        1.7187500000000000        0.0000000000000000     
  -2.4999999999999996        1.7187500000000002        0.0000000000000000     
   0.0000000000000000        1.7187500000000002        0.0000000000000000     
  -10.000000000000004        1.8750000000000004        0.0000000000000000     
  -7.5000000000000000        1.8750000000000000        0.0000000000000000     
  -4.9999999999999991        1.8750000000000000        0.0000000000000000     
  -2.5000000000000000        1.8750000000000002        0.0000000000000000     
   0.0000000000000000        1.8750000000000004        0.0000000000000000     
  -10.000000000000004        1.8750000000000004        0.0000000000000000     
  -7.5000000000000000        1.8750000000000000        0.0000000000000000     
  -4.9999999999999991        1.8750000000000000        0.0000000000000000     
  -2.5000000000000000        1.8750000000000002        0.0000000000000000     
   0.0000000000000000        1.8750000000000004        0.0000000000000000     
  -9.9999999999999982        2.0312500000000000        0.0000000000000000     
  -7.4999999999999991        2.0312500000000000        0.0000000000000000     
  -5.0000000000000009        2.0312500000000004        0.0000000000000000     
  -2.5000000000000000        2.0312500000000000        0.0000000000000000     
   0.0000000000000000        2.0312500000000000        0.0000000000000000     
  -10.000000000000002        2.1875000000000004        0.0000000000000000     
  -7.4999999999999982        2.1874999999999996        0.0000000000000000     
  -5.0000000000000009        2.1875000000000004        0.0000000000000000     
  -2.5000000000000004        2.1875000000000004        0.0000000000000000     
   0.0000000000000000        2.1875000000000004        0.0000000000000000     
  -10.000000000000002        2.3437500000000004        0.0000000000000000     
  -7.5000000000000000        2.3437500000000000        0.0000000000000000     
  -4.9999999999999982        2.3437499999999996        0.0000000000000000     
  -2.4999999999999996        2.3437500000000004        0.0000000000000000     
   0.0000000000000000        2.3437500000000004        0.0000000000000000     
  -10.000000000000004        2.5000000000000004        0.0000000000000000     
  -7.5000000000000000        2.5000000000000000        0.0000000000000000     
  -4.9999999999999991        2.5000000000000000        0.0000000000000000     
  -2.5000000000000000        2.5000000000000000        0.0000000000000000     
   0.0000000000000000        2.5000000000000004        0.0000000000000000     
  -10.000000000000004        2.5000000000000004        0.0000000000000000     
  -7.5000000000000000        2.5000000000000000        0.0000000000000000     
  -4.9999999999999991        2.5000000000000000        0.0000000000000000     
  -2.5000000000000000        2.5000000000000000        0.0000000000000000     
   0.0000000000000000        2.5000000000000004        0.0000000000000000     
  -9.9999999999999982        2.6562500000000000        0.0000000000000000     
  -7.4999999999999991        2.6562500000000000        0.0000000000000000     
  -5.0000000000000009        2.6562500000000004        0.0000000000000000     
  -2.5000000000000000        2.6562500000000000        0.0000000000000000     
   0.0000000000000000        2.6562500000000000        0.0000000000000000     
  -10.000000000000002        2.8125000000000004        0.0000000000000000     
  -7.4999999999999982        2.8124999999999996        0.0000000000000000     
  -5.0000000000000009        2.8125000000000004        0.0000000000000000     
  -2.5000000000000004        2.8125000000000000        0.0000000000000000     
   0.0000000000000000        2.8125000000000004        0.0000000000000000     
  -10.000000000000002        2.9687500000000000        0.0000000000000000     
  -7.5000000000000000        2.9687499999999996        0.0000000000000000     
  -4.9999999999999982        2.9687500000000000        0.0000000000000000     
  -2.4999999999999996        2.9687500000000004        0.0000000000000000     
   0.0000000000000000        2.9687500000000000        0.0000000000000000     
  -10.000000000000004        3.1250000000000000        0.0000000000000000     
  -7.5000000000000000        3.1250000000000000        0.0000000000000000     
  -4.9999999999999991        3.1250000000000000        0.0000000000000000     
[...]
 <PointData>
 <DataArray  type="Float64" Name="disp" NumberOfComponents="3" format="ascii">
   0.0000000000000000        0.0000000000000000        0.0000000000000000     
   3.5262814026587282E-008  -2.2881071168190804E-008   0.0000000000000000     
   9.2883040506593834E-008   8.5439439311053745E-008   0.0000000000000000     
   1.1833160022526382E-007   2.1830791088699833E-007   0.0000000000000000     
   5.7079413967841359E-008   2.6907072300890749E-007   0.0000000000000000     
   0.0000000000000000        0.0000000000000000        0.0000000000000000     
   3.3680685120653158E-008  -2.2608221606749858E-008   0.0000000000000000     
   8.5124264891832103E-008   8.2120144481527540E-008   0.0000000000000000     
   1.0899386779115163E-007   2.1621223306774752E-007   0.0000000000000000     
   5.9952622296226334E-008   2.8169517895482532E-007   0.0000000000000000     
   0.0000000000000000        0.0000000000000000        0.0000000000000000     
   3.2766067328948655E-008  -2.1148133358574197E-008   0.0000000000000000     
   7.7887898219750221E-008   8.1127241252398239E-008   0.0000000000000000     
   9.9335252423112475E-008   2.1441092028816535E-007   0.0000000000000000     
   6.1077889689743303E-008   2.8628770020397546E-007   0.0000000000000000     
   0.0000000000000000        0.0000000000000000        0.0000000000000000     
   3.2132167474612078E-008  -1.8805863207876585E-008   0.0000000000000000     
   7.1097996806563822E-008   8.1483254416346721E-008   0.0000000000000000     
   8.9678062075385566E-008   2.1271824797354265E-007   0.0000000000000000     
   6.0652937360607645E-008   2.8675001256458392E-007   0.0000000000000000     
   0.0000000000000000        0.0000000000000000        0.0000000000000000     
   3.1392192380781718E-008  -1.5886467938869819E-008   0.0000000000000000     
   6.4678616968488647E-008   8.2210708766053852E-008   0.0000000000000000     
   8.0344604702209903E-008   2.1094849154916984E-007   0.0000000000000000     
   5.8875486521034754E-008   2.8698384184487715E-007   0.0000000000000000     
   0.0000000000000000        0.0000000000000000        0.0000000000000000     
   3.1392192380781718E-008  -1.5886467938869819E-008   0.0000000000000000     
   6.4678616968488647E-008   8.2210708766053852E-008   0.0000000000000000     
   8.0344604702209903E-008   2.1094849154916984E-007   0.0000000000000000     
   5.8875486521034754E-008   2.8698384184487715E-007   0.0000000000000000     
   0.0000000000000000        0.0000000000000000        0.0000000000000000     
   3.0255182597488161E-008  -1.2698907957537779E-008   0.0000000000000000     
   5.8552765820663074E-008   8.2518423545241842E-008   0.0000000000000000     
   7.1559654568438824E-008   2.0897801614008134E-007   0.0000000000000000     
   5.5942753739729521E-008   2.9000589145872325E-007   0.0000000000000000     
   0.0000000000000000        0.0000000000000000        0.0000000000000000     
   2.8813513582330958E-008  -9.5677581569486446E-009   0.0000000000000000     
   5.2639253673916556E-008   8.2360395801798047E-008   0.0000000000000000     
   6.3157851181382594E-008   2.0693154567028553E-007   0.0000000000000000     
   5.2049937011354883E-008   2.9529277524255932E-007   0.0000000000000000     
   0.0000000000000000        0.0000000000000000        0.0000000000000000     
   2.7255394519801992E-008  -6.8214970519417064E-009   0.0000000000000000     
   4.6855841638001367E-008   8.1876917034651260E-008   0.0000000000000000     
   5.4876300358965857E-008   2.0499589376353469E-007   0.0000000000000000     
   4.7391729687063213E-008   3.0143608463846439E-007   0.0000000000000000     
   0.0000000000000000        0.0000000000000000        0.0000000000000000     
   2.5769034594393110E-008  -4.7886031573562354E-009   0.0000000000000000     
   4.1120290822669679E-008   8.1208278742730194E-008   0.0000000000000000     
   4.6452107919113157E-008   2.0335787404358096E-007   0.0000000000000000     
   4.2162825118006942E-008   3.0702741108851759E-007   0.0000000000000000     
   0.0000000000000000        0.0000000000000000        0.0000000000000000     
   2.5769034594393110E-008  -4.7886031573562354E-009   0.0000000000000000     
   4.1120290822669679E-008   8.1208278742730194E-008   0.0000000000000000     
   4.6452107919113157E-008   2.0335787404358096E-007   0.0000000000000000     
   4.2162825118006942E-008   3.0702741108851759E-007   0.0000000000000000     
   0.0000000000000000        0.0000000000000000        0.0000000000000000     
   2.4460645472956300E-008  -3.6694103617161826E-009   0.0000000000000000     
   3.5360641307738283E-008   8.0491838696093885E-008   0.0000000000000000     
   3.7713932811408245E-008   2.0214790135566096E-007   0.0000000000000000     
   3.6534465291028511E-008   3.1096293179921563E-007   0.0000000000000000     
   0.0000000000000000        0.0000000000000000        0.0000000000000000     
   2.3108448751784120E-008  -3.1516740482842944E-009   0.0000000000000000     
   2.9546049053281950E-008   7.9853219749322582E-008   0.0000000000000000     
   2.8856646512071490E-008   2.0127079543094972E-007   0.0000000000000000     
   3.0584086735730745E-008   3.1335716703472633E-007   0.0000000000000000     
   0.0000000000000000        0.0000000000000000        0.0000000000000000     
   2.1408668509529271E-008  -2.7950049740079949E-009   0.0000000000000000     
   2.3655948989440064E-008   7.9415111028126820E-008   0.0000000000000000     
   2.0166673628982443E-008   2.0057497722210702E-007   0.0000000000000000     
   2.4365674617406501E-008   3.1462922282363482E-007   0.0000000000000000     
   0.0000000000000000        0.0000000000000000        0.0000000000000000     
   1.9057528824844436E-008  -2.1590138958346803E-009   0.0000000000000000     
   1.7669776046351959E-008   7.9300201658217289E-008   0.0000000000000000     
   1.1930438770020669E-008   1.9990886768179232E-007   0.0000000000000000     
   1.7933214101348655E-008   3.1519820519452674E-007   0.0000000000000000     
   0.0000000000000000        0.0000000000000000        0.0000000000000000     
   1.9057528824844436E-008  -2.1590138958346803E-009   0.0000000000000000     
   1.7669776046351959E-008   7.9300201658217289E-008   0.0000000000000000     
   1.1930438770020669E-008   1.9990886768179232E-007   0.0000000000000000     
   1.7933214101348655E-008   3.1519820519452674E-007   0.0000000000000000     
   0.0000000000000000        0.0000000000000000        0.0000000000000000     
   1.5877415068289477E-008  -9.0717789136315299E-010   0.0000000000000000     
   1.1578994434349258E-008   7.9596577821223174E-008   0.0000000000000000     
   4.3270152981143437E-009   1.9915561241853423E-007   0.0000000000000000     
   1.1343754859519738E-008   3.1541427118134528E-007   0.0000000000000000     
   0.0000000000000000        0.0000000000000000        0.0000000000000000     
   1.2195357778052902E-008   8.8156067920234884E-010   0.0000000000000000     
   5.4231854845326370E-009   8.0253913922448659E-008   0.0000000000000000     
  -2.8939284036137214E-009   1.9833725566433729E-007   0.0000000000000000     
   4.6666045905609215E-009   3.1535178183946648E-007   0.0000000000000000     
   0.0000000000000000        0.0000000000000000        0.0000000000000000     
   8.4645487842303973E-009   3.0243931350061932E-009   0.0000000000000000     
  -7.4604019180494228E-010   8.1187281423116579E-008   0.0000000000000000     
  -1.0090075196992056E-008   1.9751056630707474E-007   0.0000000000000000     
  -2.0258645002169799E-009   3.1501614922962399E-007   0.0000000000000000     
   0.0000000000000000        0.0000000000000000        0.0000000000000000     
   5.1381799169176357E-009   5.3385107951927657E-009   0.0000000000000000     
  -6.8770719833705189E-009   8.2311751784449851E-008   0.0000000000000000     
  -1.7619107943849198E-008   1.9673231323461996E-007   0.0000000000000000     
  -8.6612802075031309E-009   3.1441278541255175E-007   0.0000000000000000     
   0.0000000000000000        0.0000000000000000        0.0000000000000000     
   5.1381799169176357E-009   5.3385107951927657E-009   0.0000000000000000     
  -6.8770719833705189E-009   8.2311751784449851E-008   0.0000000000000000     
  -1.7619107943849198E-008   1.9673231323461996E-007   0.0000000000000000     
  -8.6612802075031309E-009   3.1441278541255175E-007   0.0000000000000000     
   0.0000000000000000        0.0000000000000000        0.0000000000000000     
   2.5037007266088884E-009   7.6589171997402183E-009   0.0000000000000000     
  -1.2930867173470547E-008   8.3551179319849745E-008   0.0000000000000000     
  -2.5699581386511554E-008   1.9605560571723782E-007   0.0000000000000000     
  -1.5198319598787380E-008   3.1355101574881358E-007   0.0000000000000000     
   0.0000000000000000        0.0000000000000000        0.0000000000000000     
   1.8559164539281263E-010   9.8918647719617024E-009   0.0000000000000000     
  -1.8918654623809121E-008   8.4864549751431585E-008   0.0000000000000000     
  -3.3993537789297052E-008   1.9551891455475933E-007   0.0000000000000000     
  -2.1719856832762241E-008   3.1245581879829457E-007   0.0000000000000000     
   0.0000000000000000        0.0000000000000000        0.0000000000000000     
  -2.3574091742433375E-009   1.1961418156004127E-008   0.0000000000000000     
  -2.4864231090689721E-008   8.6219631653489067E-008   0.0000000000000000     
  -4.2023891297021468E-008   1.9515705092940685E-007   0.0000000000000000     
  -2.8339815340920863E-008   3.1115608642070938E-007   0.0000000000000000     
   0.0000000000000000        0.0000000000000000        0.0000000000000000     
  -5.6665635798123125E-009   1.3791641996014409E-008   0.0000000000000000     
  -3.0791393330415850E-008   8.7584193600316057E-008   0.0000000000000000     
  -4.9313556054500573E-008   1.9500482602340301E-007   0.0000000000000000     
  -3.5172118554756430E-008   3.0968071047577320E-007   0.0000000000000000     
   0.0000000000000000        0.0000000000000000        0.0000000000000000     
  -5.6665635798123125E-009   1.3791641996014409E-008   0.0000000000000000     
  -3.0791393330415850E-008   8.7584193600316057E-008   0.0000000000000000     
  -4.9313556054500573E-008   1.9500482602340301E-007   0.0000000000000000     
  -3.5172118554756430E-008   3.0968071047577320E-007   0.0000000000000000     
   0.0000000000000000        0.0000000000000000        0.0000000000000000     
  -1.0096124876111530E-008   1.5324085505500918E-008   0.0000000000000000     
  -3.6717897541573552E-008   8.8919123627284940E-008   0.0000000000000000     
  -5.5548482242148664E-008   1.9507933328076192E-007   0.0000000000000000     
  -4.2271043223599419E-008   3.0809893338134149E-007   0.0000000000000000     
   0.0000000000000000        0.0000000000000000        0.0000000000000000     
  -1.5252312197077075E-008   1.6570236175417911E-008   0.0000000000000000     
  -4.2637337691879068E-008   9.0157787614083006E-008   0.0000000000000000     
  -6.1066764182773899E-008   1.9532679519266488E-007   0.0000000000000000     
  -4.9452279368129576E-008   3.0664139978783306E-007   0.0000000000000000     
   0.0000000000000000        0.0000000000000000        0.0000000000000000     
  -2.0554336133929721E-008   1.7559066066081073E-008   0.0000000000000000     
  -4.8537267191331133E-008   9.1226670901476209E-008   0.0000000000000000     
  -6.6369532234782962E-008   1.9567571651208495E-007   0.0000000000000000     
  -5.6471870326863883E-008   3.0557910490380686E-007   0.0000000000000000     
   0.0000000000000000        0.0000000000000000        0.0000000000000000     
  -2.5421407277890199E-008   1.8319547237806114E-008   0.0000000000000000     
  -5.4405239449928599E-008   9.2052258830230585E-008   0.0000000000000000     
  -7.1957916756582535E-008   1.9605460199199541E-007   0.0000000000000000     
  -6.3085859438319385E-008   3.0518304393782240E-007   0.0000000000000000     
   0.0000000000000000        0.0000000000000000        0.0000000000000000     
  -2.5421407277890199E-008   1.8319547237806114E-008   0.0000000000000000     
  -5.4405239449928599E-008   9.2052258830230585E-008   0.0000000000000000     
  -7.1957916756582535E-008   1.9605460199199541E-007   0.0000000000000000     
  -6.3085859438319385E-008   3.0518304393782240E-007   0.0000000000000000     
   0.0000000000000000        0.0000000000000000        0.0000000000000000     
  -2.9415196469843973E-008   1.8872571166194894E-008   0.0000000000000000     
  -6.0230936295824905E-008   9.2604731795782257E-008   0.0000000000000000     
  -7.8224189236756572E-008   1.9642034626870775E-007   0.0000000000000000     
  -6.9171925051452684E-008   3.0554327896491685E-007   0.0000000000000000     
   0.0000000000000000        0.0000000000000000        0.0000000000000000     
  -3.2667215549335115E-008   1.9206706987993884E-008   0.0000000000000000     
  -6.6012553229792498E-008   9.3029050412247999E-008   0.0000000000000000     
  -8.5125185684598325E-008   1.9684340351188813E-007   0.0000000000000000     
  -7.5094285556978769E-008   3.0602613952604004E-007   0.0000000000000000     
   0.0000000000000000        0.0000000000000000        0.0000000000000000     
  -3.5451436605572452E-008   1.9302443255235682E-008   0.0000000000000000     
  -7.1750414170758504E-008   9.3513870348414791E-008   0.0000000000000000     
  -9.2508883239578356E-008   1.9742261777454137E-007   0.0000000000000000     
  -8.1338794356052157E-008   3.0581702202861957E-007   0.0000000000000000     
   0.0000000000000000        0.0000000000000000        0.0000000000000000     
  -3.8041831727764699E-008   1.9140268519952906E-008   0.0000000000000000     
  -7.7444843037650008E-008   9.4247847273069551E-008   0.0000000000000000     
  -1.0022325904116719E-007   1.9825683310967224E-007   0.0000000000000000     
  -8.8391304849827380E-008   3.0410132288008317E-007   0.0000000000000000     
   0.0000000000000000        0.0000000000000000        0.0000000000000000     
  -3.8041831727764699E-008   1.9140268519952906E-008   0.0000000000000000     
  -7.7444843037650008E-008   9.4247847273069551E-008   0.0000000000000000     
  -1.0022325904116719E-007   1.9825683310967224E-007   0.0000000000000000     
  -8.8391304849827380E-008   3.0410132288008317E-007   0.0000000000000000     
   0.0000000000000000        0.0000000000000000        0.0000000000000000     
  -4.0551401427919955E-008   1.8780795241991389E-008   0.0000000000000000     
  -8.3113836296886173E-008   9.5366928030827460E-008   0.0000000000000000     
  -1.0819475408458867E-007   1.9937693693790781E-007   0.0000000000000000     
  -9.6301604268717540E-008   3.0042936053463196E-007   0.0000000000000000     
   0.0000000000000000        0.0000000000000000        0.0000000000000000     
  -4.2449259909243274E-008   1.8605131512449651E-008   0.0000000000000000     
  -8.8846080604854024E-008   9.6796224169616462E-008   0.0000000000000000     
  -1.1666366478808024E-007   2.0054199015036530E-007   0.0000000000000000     
  -1.0337521516016988E-007   2.9581114163356096E-007   0.0000000000000000     
   0.0000000000000000        0.0000000000000000        0.0000000000000000     
  -4.3043549797738981E-008   1.9074509330239474E-008   0.0000000000000000     
  -9.4747935165432587E-008   9.8408138413192678E-008   0.0000000000000000     
  -1.2594875142563245E-007   2.0144309700578406E-007   0.0000000000000000     
  -1.0748159390089012E-007   2.9162159486493803E-007   0.0000000000000000     
   0.0000000000000000        0.0000000000000000        0.0000000000000000     
  -4.1642413719411432E-008   2.0650160694272594E-008   0.0000000000000000     
  -1.0092575918250094E-007   1.0007507348531225E-007   0.0000000000000000     
  -1.3636877427123604E-007   2.0177136176290368E-007   0.0000000000000000     
  -1.0649019686758410E-007   2.8923564891683159E-007   0.0000000000000000     
 </DataArray>
 </PointData>
 </Piece>
 <Piece  NumberOfPoints="           200 "  NumberOfCells="          128 ">
 <Points>
 <DataArray  type="Float64" NumberOfComponents="3"  format="ascii" >
   0.0000000000000000        0.0000000000000000        0.0000000000000000     
   2.5000000000000000        0.0000000000000000        0.0000000000000000     
   5.0000000000000000        0.0000000000000000        0.0000000000000000     
   7.5000000000000000        0.0000000000000000        0.0000000000000000     
   10.000000000000000        0.0000000000000000        0.0000000000000000     
   0.0000000000000000       0.15625000000000000        0.0000000000000000     
   2.5000000000000000       0.15625000000000000        0.0000000000000000     
   5.0000000000000000       0.15624999999999997        0.0000000000000000     
   7.5000000000000000       0.15625000000000003        0.0000000000000000     
   10.000000000000000       0.15625000000000000        0.0000000000000000     
   0.0000000000000000       0.31250000000000006        0.0000000000000000     
   2.5000000000000000       0.31250000000000000        0.0000000000000000     
   5.0000000000000000       0.31250000000000006        0.0000000000000000     
   7.4999999999999982       0.31249999999999994        0.0000000000000000     
   10.000000000000000       0.31250000000000006        0.0000000000000000     
   0.0000000000000000       0.46875000000000000        0.0000000000000000     
   2.5000000000000000       0.46875000000000000        0.0000000000000000     
   5.0000000000000000       0.46875000000000000        0.0000000000000000     
   7.5000000000000000       0.46875000000000000        0.0000000000000000     
   10.000000000000000       0.46875000000000000        0.0000000000000000     
   0.0000000000000000       0.62500000000000011        0.0000000000000000     
   2.5000000000000000       0.62500000000000000        0.0000000000000000     
   5.0000000000000009       0.62500000000000000        0.0000000000000000     
   7.4999999999999991       0.62500000000000000        0.0000000000000000     
   10.000000000000000       0.62500000000000011        0.0000000000000000     
   0.0000000000000000       0.62500000000000011        0.0000000000000000     
   2.5000000000000000       0.62500000000000000        0.0000000000000000     
   5.0000000000000009       0.62500000000000000        0.0000000000000000     
   7.4999999999999991       0.62500000000000000        0.0000000000000000     
   10.000000000000000       0.62500000000000011        0.0000000000000000     
   0.0000000000000000       0.78124999999999989        0.0000000000000000     
   2.5000000000000000       0.78125000000000011        0.0000000000000000     
   5.0000000000000009       0.78125000000000011        0.0000000000000000     
   7.5000000000000000       0.78125000000000000        0.0000000000000000     
   9.9999999999999982       0.78124999999999989        0.0000000000000000     
   0.0000000000000000       0.93749999999999989        0.0000000000000000     
   2.5000000000000000       0.93749999999999989        0.0000000000000000     
   5.0000000000000000       0.93750000000000000        0.0000000000000000     
   7.4999999999999991       0.93749999999999989        0.0000000000000000     
   10.000000000000000       0.93749999999999989        0.0000000000000000     
   0.0000000000000000        1.0937499999999998        0.0000000000000000     
   2.5000000000000000        1.0937500000000000        0.0000000000000000     
   5.0000000000000009        1.0937500000000004        0.0000000000000000     
   7.5000000000000000        1.0937500000000000        0.0000000000000000     
   10.000000000000000        1.0937499999999998        0.0000000000000000     
   0.0000000000000000        1.2500000000000002        0.0000000000000000     
   2.4999999999999996        1.2500000000000000        0.0000000000000000     
   4.9999999999999991        1.2499999999999998        0.0000000000000000     
   7.5000000000000009        1.2500000000000002        0.0000000000000000     