 <VTKFile type="UnstructuredGrid"  version="0.1"   >
 <UnstructuredGrid>
 <Piece  NumberOfPoints="           200 "  NumberOfCells="          128 ">
 <Points>
 <DataArray  type="Float64" NumberOfComponents="3"  format="ascii" >
  -10.000000000000000        0.0000000000000000        0.0000000000000000     
  -7.5000000000000000        0.0000000000000000        0.0000000000000000     
  -5.0000000000000000        0.0000000000000000        0.0000000000000000     
  -2.4999999999999996        0.0000000000000000        0.0000000000000000     
   0.0000000000000000        0.0000000000000000        0.0000000000000000     
  -10.000000000000000       0.15625000000000000        0.0000000000000000     
  -7.5000000000000000       0.15625000000000000        0.0000000000000000     
  -5.0000000000000000       0.15624999999999997        0.0000000000000000     
  -2.5000000000000000       0.15625000000000003        0.0000000000000000     
   0.0000000000000000       0.15625000000000000        0.0000000000000000     
  -10.000000000000000       0.31250000000000006        0.0000000000000000     
  -7.5000000000000000       0.31250000000000000        0.0000000000000000     
  -5.0000000000000000       0.31250000000000006        0.0000000000000000     
  -2.4999999999999996       0.31249999999999994        0.0000000000000000     
   0.0000000000000000       0.31250000000000006        0.0000000000000000     
  -10.000000000000000       0.46875000000000000        0.0000000000000000     
  -7.5000000000000000       0.46875000000000000        0.0000000000000000     
  -5.0000000000000000       0.46875000000000000        0.0000000000000000     
  -2.4999999999999996       0.46875000000000000        0.0000000000000000     
   0.0000000000000000       0.46875000000000000        0.0000000000000000     
  -10.000000000000000       0.62500000000000011        0.0000000000000000     
  -7.5000000000000000       0.62500000000000000        0.0000000000000000     
  -5.0000000000000009       0.62500000000000000        0.0000000000000000     
  -2.4999999999999996       0.62500000000000000        0.0000000000000000     
   0.0000000000000000       0.62500000000000011        0.0000000000000000     
  -10.000000000000000       0.62500000000000011        0.0000000000000000     
  -7.5000000000000000       0.62500000000000000        0.0000000000000000     
  -5.0000000000000009       0.62500000000000000        0.0000000000000000     
  -2.4999999999999996       0.62500000000000000        0.0000000000000000     
   0.0000000000000000       0.62500000000000011        0.0000000000000000     
  -9.9999999999999982       0.78124999999999989        0.0000000000000000     
  -7.5000000000000000       0.78125000000000011        0.0000000000000000     
  -5.0000000000000009       0.78125000000000011        0.0000000000000000     
  -2.4999999999999996       0.78125000000000000        0.0000000000000000     
   0.0000000000000000       0.78124999999999989        0.0000000000000000     
  -10.000000000000000       0.93749999999999989        0.0000000000000000     
  -7.4999999999999991       0.93749999999999989        0.0000000000000000     
  -5.0000000000000000       0.93750000000000000        0.0000000000000000     
  -2.5000000000000000       0.93749999999999989        0.0000000000000000     
   0.0000000000000000       0.93749999999999989        0.0000000000000000     
  -10.000000000000000        1.0937499999999998        0.0000000000000000     
  -7.5000000000000000        1.0937500000000000        0.0000000000000000     
  -5.0000000000000009        1.0937500000000004        0.0000000000000000     
  -2.5000000000000000        1.0937500000000000        0.0000000000000000     
   0.0000000000000000        1.0937499999999998        0.0000000000000000     
  -10.000000000000004        1.2500000000000002        0.0000000000000000     
  -7.5000000000000000        1.2500000000000000        0.0000000000000000     
  -4.9999999999999991        1.2499999999999998        0.0000000000000000     
  -2.5000000000000000        1.2500000000000002        0.0000000000000000     
   0.0000000000000000        1.2500000000000002        0.0000000000000000     
  -10.000000000000004        1.2500000000000002        0.0000000000000000     
  -7.5000000000000000        1.2500000000000000        0.0000000000000000     
  -4.9999999999999991        1.2499999999999998        0.0000000000000000     
  -2.5000000000000000        1.2500000000000002        0.0000000000000000     
   0.0000000000000000        1.2500000000000002        0.0000000000000000     
  -9.9999999999999982        1.4062499999999998        0.0000000000000000     
  -7.4999999999999991        1.4062500000000000        0.0000000000000000     
  -5.0000000000000009        1.4062500000000002        0.0000000000000000     
  -2.5000000000000000        1.4062500000000000        0.0000000000000000     
   0.0000000000000000        1.4062499999999998        0.0000000000000000     
  -10.000000000000002        1.5625000000000002        0.0000000000000000     
  -7.4999999999999982        1.5624999999999998        0.0000000000000000     
  -5.0000000000000009        1.5625000000000004        0.0000000000000000     
  -2.5000000000000004        1.5625000000000000        0.0000000000000000     
   0.0000000000000000        1.5625000000000002        0.0000000000000000     
  -10.000000000000002        1.7187500000000002        0.0000000000000000     
  -7.5000000000000000        1.7187500000000000        0.0000000000000000     
  -4.9999999999999982        1.7187500000000000        0.0000000000000000     
  -2.4999999999999996        1.7187500000000002        0.0000000000000000     
   0.0000000000000000        1.7187500000000002        0.0000000000000000     
  -10.000000000000004        1.8750000000000004        0.0000000000000000     
  -7.5000000000000000        1.8750000000000000        0.0000000000000000     
  -4.9999999999999991        1.8750000000000000        0.0000000000000000     
  -2.5000000000000000        1.8750000000000002        0.0000000000000000     
   0.0000000000000000        1.8750000000000004        0.0000000000000000     
  -10.000000000000004        1.8750000000000004        0.0000000000000000     
  -7.5000000000000000        1.8750000000000000        0.0000000000000000     
  -4.9999999999999991        1.8750000000000000        0.0000000000000000     
  -2.5000000000000000        1.8750000000000002        0.0000000000000000     
   0.0000000000000000        1.8750000000000004        0.0000000000000000     
  -9.9999999999999982        2.0312500000000000        0.0000000000000000     
  -7.4999999999999991        2.0312500000000000        0.0000000000000000     
  -5.0000000000000009        2.0312500000000004        0.0000000000000000     
  -2.5000000000000000        2.0312500000000000        0.0000000000000000     
   0.0000000000000000        2.0312500000000000        0.0000000000000000     
  -10.000000000000002        2.1875000000000004        0.0000000000000000     
  -7.4999999999999982        2.1874999999999996        0.0000000000000000     
  -5.0000000000000009        2.1875000000000004        0.0000000000000000     
  -2.5000000000000004        2.1875000000000004        0.0000000000000000     
   0.0000000000000000        2.1875000000000004        0.0000000000000000     
  -10.000000000000002        2.3437500000000004        0.0000000000000000     
  -7.5000000000000000        2.3437500000000000        0.0000000000000000     
  -4.9999999999999982        2.3437499999999996        0.0000000000000000     
  -2.4999999999999996        2.3437500000000004        0.0000000000000000     
   0.0000000000000000        2.3437500000000004        0.0000000000000000     
  -10.000000000000004        2.5000000000000004        0.0000000000000000     
  -7.5000000000000000        2.5000000000000000        0.0000000000000000     
  -4.9999999999999991        2.5000000000000000        0.0000000000000000     
  -2.5000000000000000        2.5000000000000000        0.0000000000000000     
   0.0000000000000000        2.5000000000000004        0.0000000000000000     
  -10.000000000000004        2.5000000000000004        0.0000000000000000     
  -7.5000000000000000        2.5000000000000000        0.0000000000000000     
  -4.9999999999999991        2.5000000000000000        0.0000000000000000     
  -2.5000000000000000        2.5000000000000000        0.0000000000000000     
   0.0000000000000000        2.5000000000000004        0.0000000000000000     
  -9.9999999999999982        2.6562500000000000        0.0000000000000000     
  -7.4999999999999991        2.6562500000000000        0.0000000000000000     
  -5.0000000000000009        2.6562500000000004        0.0000000000000000     
  -2.5000000000000000        2.6562500000000000        0.0000000000000000     
   0.0000000000000000        2.6562500000000000        0.0000000000000000     
  -10.000000000000002        2.8125000000000004        0.0000000000000000     
  -7.4999999999999982        2.8124999999999996        0.0000000000000000     
  -5.0000000000000009        2.8125000000000004        0.0000000000000000     
  -2.5000000000000004        2.8125000000000000        0.0000000000000000     
   0.0000000000000000        2.8125000000000004        0.0000000000000000     
  -10.000000000000002        2.9687500000000000        0.0000000000000000     
  -7.5000000000000000        2.9687499999999996        0.0000000000000000     
  -4.9999999999999982        2.9687500000000000        0.0000000000000000     
  -2.4999999999999996        2.9687500000000004        0.0000000000000000     
   0.0000000000000000        2.9687500000000000        0.0000000000000000     
  -10.000000000000004        3.1250000000000000        0.0000000000000000     
  -7.5000000000000000        3.1250000000000000        0.0000000000000000     
  -4.9999999999999991        3.1250000000000000        0.0000000000000000     
[...]
 <PointData>
 <DataArray  type="Float64" Name="disp" NumberOfComponents="3" format="ascii">
   0.0000000000000000        0.0000000000000000        0.0000000000000000     
   8.8145158743765419E-003   6.6569886803112377E-002   0.0000000000000000     
   7.3126603227834132E-003   3.4936032470926477E-002   0.0000000000000000     
   2.6853363634002897E-002   1.4761362221070586E-002   0.0000000000000000     
   9.8795556096817269E-002  0.11570880127117296        0.0000000000000000     
   0.0000000000000000        0.0000000000000000        0.0000000000000000     
   7.9487476369967409E-003   6.5942355528404120E-002   0.0000000000000000     
   9.0061165501053031E-003   3.4770248058743708E-002   0.0000000000000000     
   2.6740082615341224E-002   1.4486039318133378E-002   0.0000000000000000     
   8.4718621708719993E-002  0.11309209103368775        0.0000000000000000     
   0.0000000000000000        0.0000000000000000        0.0000000000000000     
   7.2403433555620561E-003   6.4988824174441490E-002   0.0000000000000000     
   1.0240530070176971E-002   3.4561125492702016E-002   0.0000000000000000     
   2.6298569618994336E-002   1.4462085143385338E-002   0.0000000000000000     
   7.2712471477163781E-002  0.11043688431509528        0.0000000000000000     
   0.0000000000000000        0.0000000000000000        0.0000000000000000     
   6.6772102923378391E-003   6.3904263112429055E-002   0.0000000000000000     
   1.1083002026134528E-002   3.4400643528356853E-002   0.0000000000000000     
   2.5591995367113391E-002   1.4624752397852396E-002   0.0000000000000000     
   6.2578810480997712E-002  0.10771220087098470        0.0000000000000000     
   0.0000000000000000        0.0000000000000000        0.0000000000000000     
   6.2472557095894447E-003   6.2883642713571497E-002   0.0000000000000000     
   1.1600633561114109E-002   3.4380780921263746E-002   0.0000000000000000     
   2.4683530581849456E-002   1.4909293782560439E-002   0.0000000000000000     
   5.4119343799070990E-002  0.10488706045694525        0.0000000000000000     
   0.0000000000000000        0.0000000000000000        0.0000000000000000     
   6.2472557095894447E-003   6.2883642713571497E-002   0.0000000000000000     
   1.1600633561114109E-002   3.4380780921263746E-002   0.0000000000000000     
   2.4683530581849456E-002   1.4909293782560439E-002   0.0000000000000000     
   5.4119343799070990E-002  0.10488706045694525        0.0000000000000000     
   0.0000000000000000        0.0000000000000000        0.0000000000000000     
   5.9270510254649800E-003   6.2073010503945633E-002   0.0000000000000000     
   1.1857535440080965E-002   3.4559011389963916E-002   0.0000000000000000     
   2.3639427311331968E-002   1.5258555359628733E-002   0.0000000000000000     
   4.7120700706702011E-002  0.10197219511451393        0.0000000000000000     
   0.0000000000000000        0.0000000000000000        0.0000000000000000     
   5.6478242816435445E-003   6.1422722629117181E-002   0.0000000000000000     
   1.1905856915316896E-002   3.4854788504941489E-002   0.0000000000000000     
   2.2538262907603353E-002   1.5645756635549853E-002   0.0000000000000000     
   4.1309207265086245E-002   9.9145186029019158E-002   0.0000000000000000     
   0.0000000000000000        0.0000000000000000        0.0000000000000000     
   5.3294676756869969E-003   6.0834212389524106E-002   0.0000000000000000     
   1.1794756860932849E-002   3.5153060799666423E-002   0.0000000000000000     
   2.1461696048684368E-002   1.6051710477909764E-002   0.0000000000000000     
   3.6396113731888405E-002   9.6625326671737052E-002   0.0000000000000000     
   0.0000000000000000        0.0000000000000000        0.0000000000000000     
   4.8918734051571888E-003   6.0208913085604360E-002   0.0000000000000000     
   1.1573394151039746E-002   3.5338776807608538E-002   0.0000000000000000     
   2.0491385412595743E-002   1.6457229754294429E-002   0.0000000000000000     
   3.2092670364773243E-002   9.4631910513943859E-002   0.0000000000000000     
   0.0000000000000000        0.0000000000000000        0.0000000000000000     
   4.8918734051571888E-003   6.0208913085604360E-002   0.0000000000000000     
   1.1573394151039746E-002   3.5338776807608538E-002   0.0000000000000000     
   2.0491385412595743E-002   1.6457229754294429E-002   0.0000000000000000     
   3.2092670364773243E-002   9.4631910513943859E-002   0.0000000000000000     
   0.0000000000000000        0.0000000000000000        0.0000000000000000     
   4.2881522918247960E-003   5.9470383452975707E-002   0.0000000000000000     
   1.1283496083291749E-002   3.5328420579145960E-002   0.0000000000000000     
   1.9677106606280751E-002   1.6848635703586547E-002   0.0000000000000000     
   2.8160059092671681E-002   9.3305553151373261E-002   0.0000000000000000     
   0.0000000000000000        0.0000000000000000        0.0000000000000000     
   3.6042896542957861E-003   5.8630683967975432E-002   0.0000000000000000     
   1.0937063649515839E-002   3.5164618232289439E-002   0.0000000000000000     
   1.8941102952372880E-002   1.7234283049856049E-002   0.0000000000000000     
   2.4559188529579619E-002   9.2472158677589386E-002   0.0000000000000000     
   0.0000000000000000        0.0000000000000000        0.0000000000000000     
   2.9594894353849482E-003   5.7724000542120631E-002   0.0000000000000000     
   1.0538666265082227E-002   3.4921531401957862E-002   0.0000000000000000     
   1.8173734702428172E-002   1.7628034888469594E-002   0.0000000000000000     
   2.1300898960759117E-002   9.1878953310613784E-002   0.0000000000000000     
   0.0000000000000000        0.0000000000000000        0.0000000000000000     
   2.4729555779070727E-003   5.6784519086928414E-002   0.0000000000000000     
   1.0092873345361113E-002   3.4673321723070187E-002   0.0000000000000000     
   1.7265362108002669E-002   1.8043754314793894E-002   0.0000000000000000     
   1.8396030671472281E-002   9.1273163268468099E-002   0.0000000000000000     
   0.0000000000000000        0.0000000000000000        0.0000000000000000     
   2.4729555779070727E-003   5.6784519086928414E-002   0.0000000000000000     
   1.0092873345361113E-002   3.4673321723070187E-002   0.0000000000000000     
   1.7265362108002669E-002   1.8043754314793894E-002   0.0000000000000000     
   1.8396030671472281E-002   9.1273163268468099E-002   0.0000000000000000     
   0.0000000000000000        0.0000000000000000        0.0000000000000000     
   2.2238529741604161E-003   5.5847928274505729E-002   0.0000000000000000     
   9.6064101167815386E-003   3.4479645766022950E-002   0.0000000000000000     
   1.6144810293196130E-002   1.8488306850966352E-002   0.0000000000000000     
   1.5836192368736950E-002   9.0467065905750696E-002   0.0000000000000000     
   0.0000000000000000        0.0000000000000000        0.0000000000000000     
   2.1311903143771170E-003   5.4955927819318975E-002   0.0000000000000000     
   9.0946250500079113E-003   3.4342139843123086E-002   0.0000000000000000     
   1.4894763872283232E-002   1.8940567726207360E-002   0.0000000000000000     
   1.3536066446593940E-002   8.9533143123366909E-002   0.0000000000000000     
   0.0000000000000000        0.0000000000000000        0.0000000000000000     
   2.0739372382727814E-003   5.4151720196424460E-002   0.0000000000000000     
   8.5750224267634803E-003   3.4247935202155182E-002   0.0000000000000000     
   1.3636372332082397E-002   1.9372414596508007E-002   0.0000000000000000     
   1.1391103720839816E-002   8.8608927958798767E-002   0.0000000000000000     
   0.0000000000000000        0.0000000000000000        0.0000000000000000     
   1.9310633855630175E-003   5.3478507880878406E-002   0.0000000000000000     
   8.0651065287715065E-003   3.4184163090903830E-002   0.0000000000000000     
   1.2490785159412031E-002   1.9755725117859432E-002   0.0000000000000000     
   9.2967550072711510E-003   8.7831953449528322E-002   0.0000000000000000     
   0.0000000000000000        0.0000000000000000        0.0000000000000000     
   1.9310633855630175E-003   5.3478507880878406E-002   0.0000000000000000     
   8.0651065287715065E-003   3.4184163090903830E-002   0.0000000000000000     
   1.2490785159412031E-002   1.9755725117859432E-002   0.0000000000000000     
   9.2967550072711510E-003   8.7831953449528322E-002   0.0000000000000000     
   0.0000000000000000        0.0000000000000000        0.0000000000000000     
   1.6241376605748723E-003   5.2963387995016542E-002   0.0000000000000000     
   7.5782348275345787E-003   3.4129760369595141E-002   0.0000000000000000     
   1.1535167555246282E-002   2.0065625839086852E-002   0.0000000000000000     
   7.1678118980771496E-003   8.7337493118842854E-002   0.0000000000000000     
   0.0000000000000000        0.0000000000000000        0.0000000000000000     
   1.2451260260811575E-003   5.2569036250292633E-002   0.0000000000000000     
   7.1111775536726743E-003   3.4030886348221386E-002   0.0000000000000000     
   1.0670747577182255E-002   2.0290238880352078E-002   0.0000000000000000     
   4.9964290910176137E-003   8.7251782433250616E-002   0.0000000000000000     
   0.0000000000000000        0.0000000000000000        0.0000000000000000     
   9.2859370946612335E-004   5.2242023005439862E-002   0.0000000000000000     
   6.6565581275851169E-003   3.3825505949216426E-002   0.0000000000000000     
   9.7547689969727999E-003   2.0420935254651017E-002   0.0000000000000000     
   2.7941020602449827E-003   8.7698797345064972E-002   0.0000000000000000     
   0.0000000000000000        0.0000000000000000        0.0000000000000000     
   8.0910593811402425E-004   5.1928918619191411E-002   0.0000000000000000     
   6.2069999696712352E-003   3.3451584095014100E-002   0.0000000000000000     
   8.6444755863707545E-003   2.0449085974979582E-002   0.0000000000000000     
   5.7232627991169946E-004   8.8802513806599412E-002   0.0000000000000000     
   0.0000000000000000        0.0000000000000000        0.0000000000000000     
   8.0910593811402425E-004   5.1928918619191411E-002   0.0000000000000000     
   6.2069999696712352E-003   3.3451584095014100E-002   0.0000000000000000     
   8.6444755863707545E-003   2.0449085974979582E-002   0.0000000000000000     
   5.7232627991169946E-004   8.8802513806599412E-002   0.0000000000000000     
   0.0000000000000000        0.0000000000000000        0.0000000000000000     
   9.7366056937358539E-004   5.1592923420706323E-002   0.0000000000000000     
   5.7585286516411028E-003   3.2878569871483285E-002   0.0000000000000000     
   7.2419959745930419E-003   2.0374387291347846E-002   0.0000000000000000     
  -1.6885457339800933E-003   9.0597823619316939E-002   0.0000000000000000     
   0.0000000000000000        0.0000000000000000        0.0000000000000000     
   1.3189859804514298E-003   5.1263757620846860E-002   0.0000000000000000     
   5.3207783504477914E-003   3.2201849018232982E-002   0.0000000000000000     
   5.6289982207128920E-003   2.0229836401822413E-002   0.0000000000000000     
  -4.1327332980294566E-003   9.2763281981279255E-002   0.0000000000000000     
   0.0000000000000000        0.0000000000000000        0.0000000000000000     
   1.6942431785186543E-003   5.0987771400901133E-002   0.0000000000000000     
   4.9067853943551348E-003   3.1548291438307202E-002   0.0000000000000000     
   3.9320352412676131E-003   2.0056755741484040E-002   0.0000000000000000     
  -6.9355986869857481E-003   9.4888359939697561E-002   0.0000000000000000     
   0.0000000000000000        0.0000000000000000        0.0000000000000000     
   1.9485931707463543E-003   5.0811314942157251E-002   0.0000000000000000     
   4.5295861116269633E-003   3.1044767034749975E-002   0.0000000000000000     
   2.2776599527945113E-003   1.9896467745413492E-002   0.0000000000000000     
  -1.0272504175598328E-002   9.6562528541783085E-002   0.0000000000000000     
   0.0000000000000000        0.0000000000000000        0.0000000000000000     
   1.9485931707463543E-003   5.0811314942157251E-002   0.0000000000000000     
   4.5295861116269633E-003   3.1044767034749975E-002   0.0000000000000000     
   2.2776599527945113E-003   1.9896467745413492E-002   0.0000000000000000     
  -1.0272504175598328E-002   9.6562528541783085E-002   0.0000000000000000     
   0.0000000000000000        0.0000000000000000        0.0000000000000000     
   1.9671892669660559E-003   5.0782856163246397E-002   0.0000000000000000     
   4.2073546193586216E-003   3.0776933124852714E-002   0.0000000000000000     
   7.7063700067664398E-004   1.9770275477282703E-002   0.0000000000000000     
  -1.4292822645580927E-002   9.7550927813000107E-002   0.0000000000000000     
   0.0000000000000000        0.0000000000000000        0.0000000000000000     
   1.7791539876509939E-003   5.0959333932172245E-002   0.0000000000000000     
   3.9788161899715147E-003   3.0665596682896278E-002   0.0000000000000000     
  -5.7142205431992262E-004   1.9619404515128395E-002   0.0000000000000000     
  -1.9041969406504804E-002   9.8321373691824879E-002   0.0000000000000000     
   0.0000000000000000        0.0000000000000000        0.0000000000000000     
   1.4496021559348320E-003   5.1399804854281583E-002   0.0000000000000000     
   3.8878338847185656E-003   3.0590352097408926E-002   0.0000000000000000     
  -1.7526939225833771E-003   1.9365061065578483E-002   0.0000000000000000     
  -2.4539370374905577E-002   9.9517351094986634E-002   0.0000000000000000     
   0.0000000000000000        0.0000000000000000        0.0000000000000000     
   1.0436485949512323E-003   5.2163325534921146E-002   0.0000000000000000     
   3.9782707648526967E-003   3.0430793756918900E-002   0.0000000000000000     
  -2.7773553145019028E-003   1.8928451335260863E-002   0.0000000000000000     
  -3.0804451467318864E-002  0.10178234493921459        0.0000000000000000     
   0.0000000000000000        0.0000000000000000        0.0000000000000000     
   1.0436485949512323E-003   5.2163325534921146E-002   0.0000000000000000     
   3.9782707648526967E-003   3.0430793756918900E-002   0.0000000000000000     
  -2.7773553145019028E-003   1.8928451335260863E-002   0.0000000000000000     
  -3.0804451467318864E-002  0.10178234493921459        0.0000000000000000     
   0.0000000000000000        0.0000000000000000        0.0000000000000000     
   5.7957672234651100E-004   5.3232968349433869E-002   0.0000000000000000     
   4.2974687520478012E-003   3.0102202214473871E-002   0.0000000000000000     
  -3.6310383756380797E-003   1.8291731336098519E-002   0.0000000000000000     
  -3.7990659125453068E-002  0.10548558545528629        0.0000000000000000     
   0.0000000000000000        0.0000000000000000        0.0000000000000000     
  -1.1165566618240061E-004   5.4287868753147173E-002   0.0000000000000000     
   4.9066852096616449E-003   2.9662602681199218E-002   0.0000000000000000     
  -4.2251969922520840E-003   1.7680856301194734E-002   0.0000000000000000     
  -4.6787521891707810E-002  0.10989928413017223        0.0000000000000000     
   0.0000000000000000        0.0000000000000000        0.0000000000000000     
  -1.2459221804259205E-003   5.4931177971384623E-002   0.0000000000000000     
   5.8706563614729706E-003   2.9205706532739757E-002   0.0000000000000000     
  -4.4527404857784836E-003   1.7382731268947831E-002   0.0000000000000000     
  -5.8018588833655425E-002  0.11402139776489126        0.0000000000000000     
   0.0000000000000000        0.0000000000000000        0.0000000000000000     
  -3.0390964301744653E-003   5.4766047229469844E-002   0.0000000000000000     
   7.2541184312605120E-003   2.8825225144740299E-002   0.0000000000000000     
  -4.2065781776518471E-003   1.7684261277756151E-002   0.0000000000000000     
  -7.2507409018868305E-002  0.11684988316046219        0.0000000000000000     
 </DataArray>
 </PointData>
 </Piece>
 <Piece  NumberOfPoints="           200 "  NumberOfCells="          128 ">
 <Points>
 <DataArray  type="Float64" NumberOfComponents="3"  format="ascii" >
   0.0000000000000000        0.0000000000000000        0.0000000000000000     
   2.5000000000000000        0.0000000000000000        0.0000000000000000     
   5.0000000000000000        0.0000000000000000        0.0000000000000000     
   7.5000000000000000        0.0000000000000000        0.0000000000000000     
   10.000000000000000        0.0000000000000000        0.0000000000000000     
   0.0000000000000000       0.15625000000000000        0.0000000000000000     
   2.5000000000000000       0.15625000000000000        0.0000000000000000     
   5.0000000000000000       0.15624999999999997        0.0000000000000000     
   7.5000000000000000       0.15625000000000003        0.0000000000000000     
   10.000000000000000       0.15625000000000000        0.0000000000000000     
   0.0000000000000000       0.31250000000000006        0.0000000000000000     
   2.5000000000000000       0.31250000000000000        0.0000000000000000     
   5.0000000000000000       0.31250000000000006        0.0000000000000000     
   7.4999999999999982       0.31249999999999994        0.0000000000000000     
   10.000000000000000       0.31250000000000006        0.0000000000000000     
   0.0000000000000000       0.46875000000000000        0.0000000000000000     
   2.5000000000000000       0.46875000000000000        0.0000000000000000     
   5.0000000000000000       0.46875000000000000        0.0000000000000000     
   7.5000000000000000       0.46875000000000000        0.0000000000000000     
   10.000000000000000       0.46875000000000000        0.0000000000000000     
   0.0000000000000000       0.62500000000000011        0.0000000000000000     
   2.5000000000000000       0.62500000000000000        0.0000000000000000     
   5.0000000000000009       0.62500000000000000        0.0000000000000000     
   7.4999999999999991       0.62500000000000000        0.0000000000000000     
   10.000000000000000       0.62500000000000011        0.0000000000000000     
   0.0000000000000000       0.62500000000000011        0.0000000000000000     
   2.5000000000000000       0.62500000000000000        0.0000000000000000     
   5.0000000000000009       0.62500000000000000        0.0000000000000000     
   7.4999999999999991       0.62500000000000000        0.0000000000000000     
   10.000000000000000       0.62500000000000011        0.0000000000000000     
   0.0000000000000000       0.78124999999999989        0.0000000000000000     
   2.5000000000000000       0.78125000000000011        0.0000000000000000     
   5.0000000000000009       0.78125000000000011        0.0000000000000000     
   7.5000000000000000       0.78125000000000000        0.0000000000000000     
   9.9999999999999982       0.78124999999999989        0.0000000000000000     
   0.0000000000000000       0.93749999999999989        0.0000000000000000     
   2.5000000000000000       0.93749999999999989        0.0000000000000000     
   5.0000000000000000       0.93750000000000000        0.0000000000000000     
   7.4999999999999991       0.93749999999999989        0.0000000000000000     
   10.000000000000000       0.93749999999999989        0.0000000000000000     
   0.0000000000000000        1.0937499999999998        0.0000000000000000     
   2.5000000000000000        1.0937500000000000        0.0000000000000000     
   5.0000000000000009        1.0937500000000004        0.0000000000000000     
   7.5000000000000000        1.0937500000000000        0.0000000000000000     
   10.000000000000000        1.0937499999999998        0.0000000000000000     
   0.0000000000000000        1.2500000000000002        0.0000000000000000     
   2.4999999999999996        1.2500000000000000        0.0000000000000000     
   4.9999999999999991        1.2499999999999998        0.0000000000000000     
   7.5000000000000009        1.2500000000000002        0.0000000000000000     