 <VTKFile type="UnstructuredGrid"  version="0.1"   >
 <UnstructuredGrid>
 <Piece  NumberOfPoints="           200 "  NumberOfCells="          128 ">
 <Points>
 <DataArray  type="Float64" NumberOfComponents="3"  format="ascii" >
  -10.000000000000000        0.0000000000000000        0.0000000000000000     
  -7.5000000000000000        0.0000000000000000        0.0000000000000000     
  -5.0000000000000000        0.0000000000000000        0.0000000000000000     
  -2.4999999999999996        0.0000000000000000        0.0000000000000000     
   0.0000000000000000        0.0000000000000000        0.0000000000000000     
  -10.000000000000000       0.15625000000000000        0.0000000000000000     
  -7.5000000000000000       0.15625000000000000        0.0000000000000000     
  -5.0000000000000000       0.15624999999999997        0.0000000000000000     
  -2.5000000000000000       0.15625000000000003        0.0000000000000000     
   0.0000000000000000       0.15625000000000000        0.0000000000000000     
  -10.000000000000000       0.31250000000000006        0.0000000000000000     
  -7.5000000000000000       0.31250000000000000        0.0000000000000000     
  -5.0000000000000000       0.31250000000000006        0.0000000000000000     
  -2.4999999999999996       0.31249999999999994        0.0000000000000000     
   0.0000000000000000       0.31250000000000006        0.0000000000000000     
  -10.000000000000000       0.46875000000000000        0.0000000000000000     
  -7.5000000000000000       0.46875000000000000        0.0000000000000000     
  -5.0000000000000000       0.46875000000000000        0.0000000000000000     
  -2.4999999999999996       0.46875000000000000        0.0000000000000000     
   0.0000000000000000       0.46875000000000000        0.0000000000000000     
  -10.000000000000000       0.62500000000000011        0.0000000000000000     
  -7.5000000000000000       0.62500000000000000        0.0000000000000000     
  -5.0000000000000009       0.62500000000000000        0.0000000000000000     
  -2.4999999999999996       0.62500000000000000        0.0000000000000000     
   0.0000000000000000       0.62500000000000011        0.0000000000000000     
  -10.000000000000000       0.62500000000000011        0.0000000000000000     
  -7.5000000000000000       0.62500000000000000        0.0000000000000000     
  -5.0000000000000009       0.62500000000000000        0.0000000000000000     
  -2.4999999999999996       0.62500000000000000        0.0000000000000000     
   0.0000000000000000       0.62500000000000011        0.0000000000000000     
  -9.9999999999999982       0.78124999999999989        0.0000000000000000     
  -7.5000000000000000       0.78125000000000011        0.0000000000000000     
  -5.0000000000000009       0.78125000000000011        0.0000000000000000     
  -2.4999999999999996       0.78125000000000000        0.0000000000000000     
   0.0000000000000000       0.78124999999999989        0.0000000000000000     
  -10.000000000000000       0.93749999999999989        0.0000000000000000     
  -7.4999999999999991       0.93749999999999989        0.0000000000000000     
  -5.0000000000000000       0.93750000000000000        0.0000000000000000     
  -2.5000000000000000       0.93749999999999989        0.0000000000000000     
   0.0000000000000000       0.93749999999999989        0.0000000000000000     
  -10.000000000000000        1.0937499999999998        0.0000000000000000     
  -7.5000000000000000        1.0937500000000000        0.0000000000000000     
  -5.0000000000000009        1.0937500000000004        0.0000000000000000     
  -2.5000000000000000        1.0937500000000000        0.0000000000000000     
   0.0000000000000000        1.0937499999999998        0.0000000000000000     
  -10.000000000000004        1.2500000000000002        0.0000000000000000     
  -7.5000000000000000        1.2500000000000000        0.0000000000000000     
  -4.9999999999999991        1.2499999999999998        0.0000000000000000     
  -2.5000000000000000        1.2500000000000002        0.0000000000000000     
   0.0000000000000000        1.2500000000000002        0.0000000000000000     
  -10.000000000000004        1.2500000000000002        0.0000000000000000     
  -7.5000000000000000        1.2500000000000000        0.0000000000000000     
  -4.9999999999999991        1.2499999999999998        0.0000000000000000     
  -2.5000000000000000        1.2500000000000002        0.0000000000000000     
   0.0000000000000000        1.2500000000000002        0.0000000000000000     
  -9.9999999999999982        1.4062499999999998        0.0000000000000000     
  -7.4999999999999991        1.4062500000000000        0.0000000000000000     
  -5.0000000000000009        1.4062500000000002        0.0000000000000000     
  -2.5000000000000000        1.4062500000000000        0.0000000000000000     
   0.0000000000000000        1.4062499999999998        0.0000000000000000     
  -10.000000000000002        1.5625000000000002        0.0000000000000000     
  -7.4999999999999982        1.5624999999999998        0.0000000000000000     
  -5.0000000000000009        1.5625000000000004        0.0000000000000000     
  -2.5000000000000004        1.5625000000000000        0.0000000000000000     
   0.0000000000000000        1.5625000000000002        0.0000000000000000     
  -10.000000000000002        1.7187500000000002        0.0000000000000000     
  -7.5000000000000000        1.7187500000000000        0.0000000000000000     
  -4.9999999999999982        1.7187500000000000        0.0000000000000000     
  -2.4999999999999996        1.7187500000000002        0.0000000000000000     
   0.0000000000000000        1.7187500000000002        0.0000000000000000     
  -10.000000000000004        1.8750000000000004        0.0000000000000000     
  -7.5000000000000000        1.8750000000000000        0.0000000000000000     
  -4.9999999999999991        1.8750000000000000        0.0000000000000000     
  -2.5000000000000000        1.8750000000000002        0.0000000000000000     
   0.0000000000000000        1.8750000000000004        0.0000000000000000     
  -10.000000000000004        1.8750000000000004        0.0000000000000000     
  -7.5000000000000000        1.8750000000000000        0.0000000000000000     
  -4.9999999999999991        1.8750000000000000        0.0000000000000000     
  -2.5000000000000000        1.8750000000000002        0.0000000000000000     
   0.0000000000000000        1.8750000000000004        0.0000000000000000     
  -9.9999999999999982        2.0312500000000000        0.0000000000000000     
  -7.4999999999999991        2.0312500000000000        0.0000000000000000     
  -5.0000000000000009        2.0312500000000004        0.0000000000000000     
  -2.5000000000000000        2.0312500000000000        0.0000000000000000     
   0.0000000000000000        2.0312500000000000        0.0000000000000000     
  -10.000000000000002        2.1875000000000004        0.0000000000000000     
  -7.4999999999999982        2.1874999999999996        0.0000000000000000     
  -5.0000000000000009        2.1875000000000004        0.0000000000000000     
  -2.5000000000000004        2.1875000000000004        0.0000000000000000     
   0.0000000000000000        2.1875000000000004        0.0000000000000000     
  -10.000000000000002        2.3437500000000004        0.0000000000000000     
  -7.5000000000000000        2.3437500000000000        0.0000000000000000     
  -4.9999999999999982        2.3437499999999996        0.0000000000000000     
  -2.4999999999999996        2.3437500000000004        0.0000000000000000     
   0.0000000000000000        2.3437500000000004        0.0000000000000000     
  -10.000000000000004        2.5000000000000004        0.0000000000000000     
  -7.5000000000000000        2.5000000000000000        0.0000000000000000     
  -4.9999999999999991        2.5000000000000000        0.0000000000000000     
  -2.5000000000000000        2.5000000000000000        0.0000000000000000     
   0.0000000000000000        2.5000000000000004        0.0000000000000000     
  -10.000000000000004        2.5000000000000004        0.0000000000000000     
  -7.5000000000000000        2.5000000000000000        0.0000000000000000     
  -4.9999999999999991        2.5000000000000000        0.0000000000000000     
  -2.5000000000000000        2.5000000000000000        0.0000000000000000     
   0.0000000000000000        2.5000000000000004        0.0000000000000000     
  -9.9999999999999982        2.6562500000000000        0.0000000000000000     
  -7.4999999999999991        2.6562500000000000        0.0000000000000000     
  -5.0000000000000009        2.6562500000000004        0.0000000000000000     
  -2.5000000000000000        2.6562500000000000        0.0000000000000000     
   0.0000000000000000        2.6562500000000000        0.0000000000000000     
  -10.000000000000002        2.8125000000000004        0.0000000000000000     
  -7.4999999999999982        2.8124999999999996        0.0000000000000000     
  -5.0000000000000009        2.8125000000000004        0.0000000000000000     
  -2.5000000000000004        2.8125000000000000        0.0000000000000000     
   0.0000000000000000        2.8125000000000004        0.0000000000000000     
  -10.000000000000002        2.9687500000000000        0.0000000000000000     
  -7.5000000000000000        2.9687499999999996        0.0000000000000000     
  -4.9999999999999982        2.9687500000000000        0.0000000000000000     
  -2.4999999999999996        2.9687500000000004        0.0000000000000000     
   0.0000000000000000        2.9687500000000000        0.0000000000000000     
  -10.000000000000004        3.1250000000000000        0.0000000000000000     
  -7.5000000000000000        3.1250000000000000        0.0000000000000000     
  -4.9999999999999991        3.1250000000000000        0.0000000000000000     
[...]
 <PointData>
 <DataArray  type="Float64" Name="disp" NumberOfComponents="3" format="ascii">
   0.0000000000000000        0.0000000000000000        0.0000000000000000     
   3.1306913984373824E-002   2.8745631046303517E-002   0.0000000000000000     
   3.4261975941867084E-002   7.5073785006864860E-002   0.0000000000000000     
   3.3449941064329150E-002  0.12767217864180871        0.0000000000000000     
   5.3455564543609398E-002  0.17522852871125980        0.0000000000000000     
   0.0000000000000000        0.0000000000000000        0.0000000000000000     
   2.7079813935532469E-002   2.8684979890408604E-002   0.0000000000000000     
   3.1083565679165908E-002   7.5218817394662227E-002   0.0000000000000000     
   3.1999321996099964E-002  0.12762091198966161        0.0000000000000000     
   4.9815149651534267E-002  0.17391066315230752        0.0000000000000000     
   0.0000000000000000        0.0000000000000000        0.0000000000000000     
   2.2703282315421947E-002   2.8669910153311464E-002   0.0000000000000000     
   2.8176817700460734E-002   7.5324352110159212E-002   0.0000000000000000     
   3.0893364226881253E-002  0.12755351725742206        0.0000000000000000     
   4.5325679966448436E-002  0.17294759698197881        0.0000000000000000     
   0.0000000000000000        0.0000000000000000        0.0000000000000000     
   1.8565881593770917E-002   2.8604171371407406E-002   0.0000000000000000     
   2.5494485982264281E-002   7.5344340382985320E-002   0.0000000000000000     
   2.9822565308548460E-002  0.12748509270212383        0.0000000000000000     
   4.0586871715691829E-002  0.17229101399621294        0.0000000000000000     
   0.0000000000000000        0.0000000000000000        0.0000000000000000     
   1.5056174240308060E-002   2.8391513081091807E-002   0.0000000000000000     
   2.2989324501089300E-002   7.5232733442770067E-002   0.0000000000000000     
   2.8477422792976985E-002  0.12743073658080056        0.0000000000000000     
   3.6198441126604412E-002  0.17189259799094930        0.0000000000000000     
   0.0000000000000000        0.0000000000000000        0.0000000000000000     
   1.5056174240308060E-002   2.8391513081091807E-002   0.0000000000000000     
   2.2989324501089300E-002   7.5232733442770067E-002   0.0000000000000000     
   2.8477422792976985E-002  0.12743073658080056        0.0000000000000000     
   3.6198441126604412E-002  0.17189259799094930        0.0000000000000000     
   0.0000000000000000        0.0000000000000000        0.0000000000000000     
   1.2441815779541475E-002   2.7970368047827640E-002   0.0000000000000000     
   2.0619103793786491E-002   7.4964297278285977E-002   0.0000000000000000     
   2.6639006495618216E-002  0.12739997053184152        0.0000000000000000     
   3.2608666337919825E-002  0.17169557064896071        0.0000000000000000     
   0.0000000000000000        0.0000000000000000        0.0000000000000000     
   1.0506833955096946E-002   2.7417901953348582E-002   0.0000000000000000     
   1.8361660638558455E-002   7.4597056914877918E-002   0.0000000000000000     
   2.4450675286227387E-002  0.12738000971905680        0.0000000000000000     
   2.9660073133946595E-002  0.17160930520035420        0.0000000000000000     
   0.0000000000000000        0.0000000000000000        0.0000000000000000     
   8.9143495653796982E-003   2.6845963708455996E-002   0.0000000000000000     
   1.6199848373945783E-002   7.4209852137033697E-002   0.0000000000000000     
   2.2146360298135714E-002  0.12735249268761209        0.0000000000000000     
   2.7043749210386957E-002  0.17153471276207022        0.0000000000000000     
   0.0000000000000000        0.0000000000000000        0.0000000000000000     
   7.3274834087949520E-003   2.6366402223951205E-002   0.0000000000000000     
   1.4116520338489050E-002   7.3881522729241186E-002   0.0000000000000000     
   1.9959992664674416E-002  0.12729905798267294        0.0000000000000000     
   2.4450782262943151E-002  0.17137270445104930        0.0000000000000000     
   0.0000000000000000        0.0000000000000000        0.0000000000000000     
   7.3274834087949520E-003   2.6366402223951205E-002   0.0000000000000000     
   1.4116520338489050E-002   7.3881522729241186E-002   0.0000000000000000     
   1.9959992664674416E-002  0.12729905798267294        0.0000000000000000     
   2.4450782262943151E-002  0.17137270445104930        0.0000000000000000     
   0.0000000000000000        0.0000000000000000        0.0000000000000000     
   5.5030443978520008E-003   2.6066315287022315E-002   0.0000000000000000     
   1.2097904632452011E-002   7.3672146772229954E-002   0.0000000000000000     
   1.8055735943035511E-002  0.12720588943657138        0.0000000000000000     
   2.1647693568837979E-002  0.17105593826099516        0.0000000000000000     
   0.0000000000000000        0.0000000000000000        0.0000000000000000     
   3.5725939014764436E-003   2.5933796190404482E-002   0.0000000000000000     
   1.0143728402991074E-002   7.3566755531696171E-002   0.0000000000000000     
   1.6318683385854314E-002  0.12707735203030598        0.0000000000000000     
   1.8702738731376602E-002  0.17064405969266500        0.0000000000000000     
   0.0000000000000000        0.0000000000000000        0.0000000000000000     
   1.7613814026979529E-003   2.5932187103219605E-002   0.0000000000000000     
   8.2570935589858143E-003   7.3531618569577711E-002   0.0000000000000000     
   1.4564160669626949E-002  0.12692235603204166        0.0000000000000000     
   1.5759606935384723E-002  0.17022846112357884        0.0000000000000000     
   0.0000000000000000        0.0000000000000000        0.0000000000000000     
   2.9465638454620100E-004   2.6024830194589583E-002   0.0000000000000000     
   6.4411020093158109E-003   7.3533005447812549E-002   0.0000000000000000     
   1.2607493470849539E-002  0.12674981170994354        0.0000000000000000     
   1.2961987365688082E-002  0.16990053493125717        0.0000000000000000     
   0.0000000000000000        0.0000000000000000        0.0000000000000000     
   2.9465638454620100E-004   2.6024830194589583E-002   0.0000000000000000     
   6.4411020093158109E-003   7.3533005447812549E-002   0.0000000000000000     
   1.2607493470849539E-002  0.12674981170994354        0.0000000000000000     
   1.2961987365688082E-002  0.16990053493125717        0.0000000000000000     
   0.0000000000000000        0.0000000000000000        0.0000000000000000     
  -6.8897214324118014E-004   2.6175128713278786E-002   0.0000000000000000     
   4.6957444037523414E-003   7.3540370166425298E-002   0.0000000000000000     
   1.0332923705337645E-002  0.12656901490872113        0.0000000000000000     
   1.0401339825871802E-002  0.16973435348944796        0.0000000000000000     
   0.0000000000000000        0.0000000000000000        0.0000000000000000     
  -1.3974570640947158E-003   2.6346730226621515E-002   0.0000000000000000     
   3.0085663556334743E-003   7.3535904477787864E-002   0.0000000000000000     
   7.9003582461845898E-003  0.12639080377926284        0.0000000000000000     
   7.9602065945586498E-003  0.16973470915681024        0.0000000000000000     
   0.0000000000000000        0.0000000000000000        0.0000000000000000     
  -2.1253917347369717E-003   2.6503343381594532E-002   0.0000000000000000     
   1.3640022191889864E-003   7.3504984572358878E-002   0.0000000000000000     
   5.5386202058031481E-003  0.12622640204900148        0.0000000000000000     
   5.4689005691307829E-003  0.16988907428823072        0.0000000000000000     
   0.0000000000000000        0.0000000000000000        0.0000000000000000     
  -3.1673695118905137E-003   2.6608676825174590E-002   0.0000000000000000     
  -2.5351365135134918E-004   7.3432986640597053E-002   0.0000000000000000     
   3.4765326966060836E-003  0.12608703344537003        0.0000000000000000     
   2.7577346469703726E-003  0.17018492123859616        0.0000000000000000     
   0.0000000000000000        0.0000000000000000        0.0000000000000000     
  -3.1673695118905137E-003   2.6608676825174590E-002   0.0000000000000000     
  -2.5351365135134918E-004   7.3432986640597053E-002   0.0000000000000000     
   3.4765326966060836E-003  0.12608703344537003        0.0000000000000000     
   2.7577346469703726E-003  0.17018492123859616        0.0000000000000000     
   0.0000000000000000        0.0000000000000000        0.0000000000000000     
  -4.7088848152309747E-003   2.6636800033955844E-002   0.0000000000000000     
  -1.8586421703074745E-003   7.3311601237487090E-002   0.0000000000000000     
   1.8493436627266152E-003  0.12598155896049779        0.0000000000000000     
  -2.8631158817259085E-004  0.17060382855289191        0.0000000000000000     
   0.0000000000000000        0.0000000000000000        0.0000000000000000     
  -6.4990363162462624E-003   2.6603225803001885E-002   0.0000000000000000     
  -3.4624253261981847E-003   7.3157776376117936E-002   0.0000000000000000     
   4.1800037517978597E-004  0.12590938864529952        0.0000000000000000     
  -3.5495918070768068E-003  0.17110379953649818        0.0000000000000000     
   0.0000000000000000        0.0000000000000000        0.0000000000000000     
  -8.1778237493773595E-003   2.6533827756993707E-002   0.0000000000000000     
  -5.0750003760919853E-003   7.2994774434104584E-002   0.0000000000000000     
  -1.1501250632989064E-003  0.12586756981538663        0.0000000000000000     
  -6.8617929941531481E-003  0.17163694368489371        0.0000000000000000     
   0.0000000000000000        0.0000000000000000        0.0000000000000000     
  -9.3852468490652416E-003   2.6454479520612296E-002   0.0000000000000000     
  -6.7065045770573883E-003   7.2845857789062121E-002   0.0000000000000000     
  -3.1876605499739641E-003  0.12585314978637022        0.0000000000000000     
  -1.0052602133812491E-002  0.17215537049355722        0.0000000000000000     
   0.0000000000000000        0.0000000000000000        0.0000000000000000     
  -9.3852468490652416E-003   2.6454479520612296E-002   0.0000000000000000     
  -6.7065045770573883E-003   7.2845857789062121E-002   0.0000000000000000     
  -3.1876605499739641E-003  0.12585314978637022        0.0000000000000000     
  -1.0052602133812491E-002  0.17215537049355722        0.0000000000000000     
   0.0000000000000000        0.0000000000000000        0.0000000000000000     
  -9.8849061817189946E-003   2.6388752498364598E-002   0.0000000000000000     
  -8.3698847069148506E-003   7.2732894013254279E-002   0.0000000000000000     
  -5.9197442112048186E-003  0.12586409935430359        0.0000000000000000     
  -1.2999293330206142E-002  0.17261404333114713        0.0000000000000000     
   0.0000000000000000        0.0000000000000000        0.0000000000000000     
  -9.9348056416201456E-003   2.6351009214061496E-002   0.0000000000000000     
  -1.0089325626492644E-002   7.2672171457539916E-002   0.0000000000000000     
  -9.1415550897306075E-003  0.12590208323700838        0.0000000000000000     
  -1.5769489166447177E-002  0.17297934105904009        0.0000000000000000     
   0.0000000000000000        0.0000000000000000        0.0000000000000000     
  -9.9165499550183406E-003   2.6353309971339837E-002   0.0000000000000000     
  -1.1891821717370981E-002   7.2678583667426633E-002   0.0000000000000000     
  -1.2540782457385402E-002  0.12596968963274821        0.0000000000000000     
  -1.8478399345389088E-002  0.17322049641179216        0.0000000000000000     
   0.0000000000000000        0.0000000000000000        0.0000000000000000     
  -1.0211743848163214E-002   2.6407715073836484E-002   0.0000000000000000     
  -1.3804367361130087E-002   7.2767024188422097E-002   0.0000000000000000     
  -1.5805115586003265E-002  0.12606950673978659        0.0000000000000000     
  -2.1241233569885377E-002  0.17330674212395969        0.0000000000000000     
   0.0000000000000000        0.0000000000000000        0.0000000000000000     
  -1.0211743848163214E-002   2.6407715073836484E-002   0.0000000000000000     
  -1.3804367361130087E-002   7.2767024188422097E-002   0.0000000000000000     
  -1.5805115586003265E-002  0.12606950673978659        0.0000000000000000     
  -2.1241233569885377E-002  0.17330674212395969        0.0000000000000000     
   0.0000000000000000        0.0000000000000000        0.0000000000000000     
  -1.1116330949750806E-002   2.6524139060543350E-002   0.0000000000000000     
  -1.5852169656270849E-002   7.2942916899679189E-002   0.0000000000000000     
  -1.8693275875117443E-002  0.12619907886108672        0.0000000000000000     
  -2.4125409361847903E-002  0.17323537028844499        0.0000000000000000     
   0.0000000000000000        0.0000000000000000        0.0000000000000000     
  -1.2583610498262773E-002   2.6703913411872716E-002   0.0000000000000000     
  -1.8053286568976829E-002   7.3173807014931827E-002   0.0000000000000000     
  -2.1248113235057951E-002  0.12633577471840893        0.0000000000000000     
  -2.7007175519421944E-002  0.17311591043153551        0.0000000000000000     
   0.0000000000000000        0.0000000000000000        0.0000000000000000     
  -1.4481220634627177E-002   2.6946223843591955E-002   0.0000000000000000     
  -2.0423988782352239E-002   7.3417770081559294E-002   0.0000000000000000     
  -2.3583509703853964E-002  0.12645191913821321        0.0000000000000000     
  -2.9714988659811127E-002  0.17308595143786482        0.0000000000000000     
   0.0000000000000000        0.0000000000000000        0.0000000000000000     
  -1.6676799499772070E-002   2.7250256071468415E-002   0.0000000000000000     
  -2.2980546979501318E-002   7.3632881646940748E-002   0.0000000000000000     
  -2.5813347319534677E-002  0.12651983694695934        0.0000000000000000     
  -3.2077305400219067E-002  0.17328308219206651        0.0000000000000000     
   0.0000000000000000        0.0000000000000000        0.0000000000000000     
  -1.6676799499772070E-002   2.7250256071468415E-002   0.0000000000000000     
  -2.2980546979501318E-002   7.3632881646940748E-002   0.0000000000000000     
  -2.5813347319534677E-002  0.12651983694695934        0.0000000000000000     
  -3.2077305400219067E-002  0.17328308219206651        0.0000000000000000     
   0.0000000000000000        0.0000000000000000        0.0000000000000000     
  -1.9104925175107691E-002   2.7607788120179746E-002   0.0000000000000000     
  -2.5728068650009275E-002   7.3786370143960459E-002   0.0000000000000000     
  -2.8008523453768835E-002  0.12652110363421096        0.0000000000000000     
  -3.4085382615450438E-002  0.17379734615380010        0.0000000000000000     
   0.0000000000000000        0.0000000000000000        0.0000000000000000     
  -2.1967935503973014E-002   2.7980967250044744E-002   0.0000000000000000     
  -2.8627008509385311E-002   7.3882075547522616E-002   0.0000000000000000     
  -3.0067996812783479E-002  0.12647429734194646        0.0000000000000000     
  -3.6381678210714072E-002  0.17452860508282889        0.0000000000000000     
   0.0000000000000000        0.0000000000000000        0.0000000000000000     
  -2.5535108270189202E-002   2.8324533030292504E-002   0.0000000000000000     
  -3.1626658079619618E-002   7.3932990718036579E-002   0.0000000000000000     
  -3.1847741436445177E-002  0.12640724687524788        0.0000000000000000     
  -3.9771450348819778E-002  0.17532917531394199        0.0000000000000000     
   0.0000000000000000        0.0000000000000000        0.0000000000000000     
  -3.0075721257577407E-002   2.8593225030152110E-002   0.0000000000000000     
  -3.4676308882702393E-002   7.3952108515911552E-002   0.0000000000000000     
  -3.3203731364620535E-002  0.12634778103919736        0.0000000000000000     
  -4.5059957192577431E-002  0.17605137318192854        0.0000000000000000     
 </DataArray>
 </PointData>
 </Piece>
 <Piece  NumberOfPoints="           200 "  NumberOfCells="          128 ">
 <Points>
 <DataArray  type="Float64" NumberOfComponents="3"  format="ascii" >
   0.0000000000000000        0.0000000000000000        0.0000000000000000     
   2.5000000000000000        0.0000000000000000        0.0000000000000000     
   5.0000000000000000        0.0000000000000000        0.0000000000000000     
   7.5000000000000000        0.0000000000000000        0.0000000000000000     
   10.000000000000000        0.0000000000000000        0.0000000000000000     
   0.0000000000000000       0.15625000000000000        0.0000000000000000     
   2.5000000000000000       0.15625000000000000        0.0000000000000000     
   5.0000000000000000       0.15624999999999997        0.0000000000000000     
   7.5000000000000000       0.15625000000000003        0.0000000000000000     
   10.000000000000000       0.15625000000000000        0.0000000000000000     
   0.0000000000000000       0.31250000000000006        0.0000000000000000     
   2.5000000000000000       0.31250000000000000        0.0000000000000000     
   5.0000000000000000       0.31250000000000006        0.0000000000000000     
   7.4999999999999982       0.31249999999999994        0.0000000000000000     
   10.000000000000000       0.31250000000000006        0.0000000000000000     
   0.0000000000000000       0.46875000000000000        0.0000000000000000     
   2.5000000000000000       0.46875000000000000        0.0000000000000000     
   5.0000000000000000       0.46875000000000000        0.0000000000000000     
   7.5000000000000000       0.46875000000000000        0.0000000000000000     
   10.000000000000000       0.46875000000000000        0.0000000000000000     
   0.0000000000000000       0.62500000000000011        0.0000000000000000     
   2.5000000000000000       0.62500000000000000        0.0000000000000000     
   5.0000000000000009       0.62500000000000000        0.0000000000000000     
   7.4999999999999991       0.62500000000000000        0.0000000000000000     
   10.000000000000000       0.62500000000000011        0.0000000000000000     
   0.0000000000000000       0.62500000000000011        0.0000000000000000     
   2.5000000000000000       0.62500000000000000        0.0000000000000000     
   5.0000000000000009       0.62500000000000000        0.0000000000000000     
   7.4999999999999991       0.62500000000000000        0.0000000000000000     
   10.000000000000000       0.62500000000000011        0.0000000000000000     
   0.0000000000000000       0.78124999999999989        0.0000000000000000     
   2.5000000000000000       0.78125000000000011        0.0000000000000000     
   5.0000000000000009       0.78125000000000011        0.0000000000000000     
   7.5000000000000000       0.78125000000000000        0.0000000000000000     
   9.9999999999999982       0.78124999999999989        0.0000000000000000     
   0.0000000000000000       0.93749999999999989        0.0000000000000000     
   2.5000000000000000       0.93749999999999989        0.0000000000000000     
   5.0000000000000000       0.93750000000000000        0.0000000000000000     
   7.4999999999999991       0.93749999999999989        0.0000000000000000     
   10.000000000000000       0.93749999999999989        0.0000000000000000     
   0.0000000000000000        1.0937499999999998        0.0000000000000000     
   2.5000000000000000        1.0937500000000000        0.0000000000000000     
   5.0000000000000009        1.0937500000000004        0.0000000000000000     
   7.5000000000000000        1.0937500000000000        0.0000000000000000     
   10.000000000000000        1.0937499999999998        0.0000000000000000     
   0.0000000000000000        1.2500000000000002        0.0000000000000000     
   2.4999999999999996        1.2500000000000000        0.0000000000000000     
   4.9999999999999991        1.2499999999999998        0.0000000000000000     
   7.5000000000000009        1.2500000000000002        0.0000000000000000     