 <VTKFile type="UnstructuredGrid"  version="0.1"   >
 <UnstructuredGrid>
 <Piece  NumberOfPoints="           200 "  NumberOfCells="          128 ">
 <Points>
 <DataArray  type="Float64" NumberOfComponents="3"  format="ascii" >
  -10.000000000000000        0.0000000000000000        0.0000000000000000     
  -7.5000000000000000        0.0000000000000000        0.0000000000000000     
  -5.0000000000000000        0.0000000000000000        0.0000000000000000     
  -2.4999999999999996        0.0000000000000000        0.0000000000000000     
   0.0000000000000000        0.0000000000000000        0.0000000000000000     
  -10.000000000000000       0.15625000000000000        0.0000000000000000     
  -7.5000000000000000       0.15625000000000000        0.0000000000000000     
  -5.0000000000000000       0.15624999999999997        0.0000000000000000     
  -2.5000000000000000       0.15625000000000003        0.0000000000000000     
   0.0000000000000000       0.15625000000000000        0.0000000000000000     
  -10.000000000000000       0.31250000000000006        0.0000000000000000     
  -7.5000000000000000       0.31250000000000000        0.0000000000000000     
  -5.0000000000000000       0.31250000000000006        0.0000000000000000     
  -2.4999999999999996       0.31249999999999994        0.0000000000000000     
   0.0000000000000000       0.31250000000000006        0.0000000000000000     
  -10.000000000000000       0.46875000000000000        0.0000000000000000     
  -7.5000000000000000       0.46875000000000000        0.0000000000000000     
  -5.0000000000000000       0.46875000000000000        0.0000000000000000     
  -2.4999999999999996       0.46875000000000000        0.0000000000000000     
   0.0000000000000000       0.46875000000000000        0.0000000000000000     
  -10.000000000000000       0.62500000000000011        0.0000000000000000     
  -7.5000000000000000       0.62500000000000000        0.0000000000000000     
  -5.0000000000000009       0.62500000000000000        0.0000000000000000     
  -2.4999999999999996       0.62500000000000000        0.0000000000000000     
   0.0000000000000000       0.62500000000000011        0.0000000000000000     
  -10.000000000000000       0.62500000000000011        0.0000000000000000     
  -7.5000000000000000       0.62500000000000000        0.0000000000000000     
  -5.0000000000000009       0.62500000000000000        0.0000000000000000     
  -2.4999999999999996       0.62500000000000000        0.0000000000000000     
   0.0000000000000000       0.62500000000000011        0.0000000000000000     
  -9.9999999999999982       0.78124999999999989        0.0000000000000000     
  -7.5000000000000000       0.78125000000000011        0.0000000000000000     
  -5.0000000000000009       0.78125000000000011        0.0000000000000000     
  -2.4999999999999996       0.78125000000000000        0.0000000000000000     
   0.0000000000000000       0.78124999999999989        0.0000000000000000     
  -10.000000000000000       0.93749999999999989        0.0000000000000000     
  -7.4999999999999991       0.93749999999999989        0.0000000000000000     
  -5.0000000000000000       0.93750000000000000        0.0000000000000000     
  -2.5000000000000000       0.93749999999999989        0.0000000000000000     
   0.0000000000000000       0.93749999999999989        0.0000000000000000     
  -10.000000000000000        1.0937499999999998        0.0000000000000000     
  -7.5000000000000000        1.0937500000000000        0.0000000000000000     
  -5.0000000000000009        1.0937500000000004        0.0000000000000000     
  -2.5000000000000000        1.0937500000000000        0.0000000000000000     
   0.0000000000000000        1.0937499999999998        0.0000000000000000     
  -10.000000000000004        1.2500000000000002        0.0000000000000000     
  -7.5000000000000000        1.2500000000000000        0.0000000000000000     
  -4.9999999999999991        1.2499999999999998        0.0000000000000000     
  -2.5000000000000000        1.2500000000000002        0.0000000000000000     
   0.0000000000000000        1.2500000000000002        0.0000000000000000     
  -10.000000000000004        1.2500000000000002        0.0000000000000000     
  -7.5000000000000000        1.2500000000000000        0.0000000000000000     
  -4.9999999999999991        1.2499999999999998        0.0000000000000000     
  -2.5000000000000000        1.2500000000000002        0.0000000000000000     
   0.0000000000000000        1.2500000000000002        0.0000000000000000     
  -9.9999999999999982        1.4062499999999998        0.0000000000000000     
  -7.4999999999999991        1.4062500000000000        0.0000000000000000     
  -5.0000000000000009        1.4062500000000002        0.0000000000000000     
  -2.5000000000000000        1.4062500000000000        0.0000000000000000     
   0.0000000000000000        1.4062499999999998        0.0000000000000000     
  -10.000000000000002        1.5625000000000002        0.0000000000000000     
  -7.4999999999999982        1.5624999999999998        0.0000000000000000     
  -5.0000000000000009        1.5625000000000004        0.0000000000000000     
  -2.5000000000000004        1.5625000000000000        0.0000000000000000     
   0.0000000000000000        1.5625000000000002        0.0000000000000000     
  -10.000000000000002        1.7187500000000002        0.0000000000000000     
  -7.5000000000000000        1.7187500000000000        0.0000000000000000     
  -4.9999999999999982        1.7187500000000000        0.0000000000000000     
  -2.4999999999999996        1.7187500000000002        0.0000000000000000     
   0.0000000000000000        1.7187500000000002        0.0000000000000000     
  -10.000000000000004        1.8750000000000004        0.0000000000000000     
  -7.5000000000000000        1.8750000000000000        0.0000000000000000     
  -4.9999999999999991        1.8750000000000000        0.0000000000000000     
  -2.5000000000000000        1.8750000000000002        0.0000000000000000     
   0.0000000000000000        1.8750000000000004        0.0000000000000000     
  -10.000000000000004        1.8750000000000004        0.0000000000000000     
  -7.5000000000000000        1.8750000000000000        0.0000000000000000     
  -4.9999999999999991        1.8750000000000000        0.0000000000000000     
  -2.5000000000000000        1.8750000000000002        0.0000000000000000     
   0.0000000000000000        1.8750000000000004        0.0000000000000000     
  -9.9999999999999982        2.0312500000000000        0.0000000000000000     
  -7.4999999999999991        2.0312500000000000        0.0000000000000000     
  -5.0000000000000009        2.0312500000000004        0.0000000000000000     
  -2.5000000000000000        2.0312500000000000        0.0000000000000000     
   0.0000000000000000        2.0312500000000000        0.0000000000000000     
  -10.000000000000002        2.1875000000000004        0.0000000000000000     
  -7.4999999999999982        2.1874999999999996        0.0000000000000000     
  -5.0000000000000009        2.1875000000000004        0.0000000000000000     
  -2.5000000000000004        2.1875000000000004        0.0000000000000000     
   0.0000000000000000        2.1875000000000004        0.0000000000000000     
  -10.000000000000002        2.3437500000000004        0.0000000000000000     
  -7.5000000000000000        2.3437500000000000        0.0000000000000000     
  -4.9999999999999982        2.3437499999999996        0.0000000000000000     
  -2.4999999999999996        2.3437500000000004        0.0000000000000000     
   0.0000000000000000        2.3437500000000004        0.0000000000000000     
  -10.000000000000004        2.5000000000000004        0.0000000000000000     
  -7.5000000000000000        2.5000000000000000        0.0000000000000000     
  -4.9999999999999991        2.5000000000000000        0.0000000000000000     
  -2.5000000000000000        2.5000000000000000        0.0000000000000000     
   0.0000000000000000        2.5000000000000004        0.0000000000000000     
  -10.000000000000004        2.5000000000000004        0.0000000000000000     
  -7.5000000000000000        2.5000000000000000        0.0000000000000000     
  -4.9999999999999991        2.5000000000000000        0.0000000000000000     
  -2.5000000000000000        2.5000000000000000        0.0000000000000000     
   0.0000000000000000        2.5000000000000004        0.0000000000000000     
  -9.9999999999999982        2.6562500000000000        0.0000000000000000     
  -7.4999999999999991        2.6562500000000000        0.0000000000000000     
  -5.0000000000000009        2.6562500000000004        0.0000000000000000     
  -2.5000000000000000        2.6562500000000000        0.0000000000000000     
   0.0000000000000000        2.6562500000000000        0.0000000000000000     
  -10.000000000000002        2.8125000000000004        0.0000000000000000     
  -7.4999999999999982        2.8124999999999996        0.0000000000000000     
  -5.0000000000000009        2.8125000000000004        0.0000000000000000     
  -2.5000000000000004        2.8125000000000000        0.0000000000000000     
   0.0000000000000000        2.8125000000000004        0.0000000000000000     
  -10.000000000000002        2.9687500000000000        0.0000000000000000     
  -7.5000000000000000        2.9687499999999996        0.0000000000000000     
  -4.9999999999999982        2.9687500000000000        0.0000000000000000     
  -2.4999999999999996        2.9687500000000004        0.0000000000000000     
   0.0000000000000000        2.9687500000000000        0.0000000000000000     
  -10.000000000000004        3.1250000000000000        0.0000000000000000     
  -7.5000000000000000        3.1250000000000000        0.0000000000000000     
  -4.9999999999999991        3.1250000000000000        0.0000000000000000     
[...]
 <PointData>
 <DataArray  type="Float64" Name="disp" NumberOfComponents="3" format="ascii">
   0.0000000000000000        0.0000000000000000        0.0000000000000000     
   2.5855186455633894E-003   2.1498092897708786E-002   0.0000000000000000     
  -1.1599819319731718E-002   1.3514198640571504E-002   0.0000000000000000     
  -2.2942082235048601E-002  -7.3642054999083911E-004   0.0000000000000000     
  -1.1827338439550528E-002   1.9614975474427730E-003   0.0000000000000000     
   0.0000000000000000        0.0000000000000000        0.0000000000000000     
   1.8570632695403570E-003   2.1443300089306744E-002   0.0000000000000000     
  -1.0886848611716737E-002   1.4169314729480088E-002   0.0000000000000000     
  -2.1632808919783152E-002  -2.6411473967066302E-004   0.0000000000000000     
  -1.3781890930670724E-002  -2.9914697833619908E-004   0.0000000000000000     
   0.0000000000000000        0.0000000000000000        0.0000000000000000     
   1.3283892171409544E-003   2.1173185255213094E-002   0.0000000000000000     
  -1.0195083609532965E-002   1.4505031547940330E-002   0.0000000000000000     
  -2.0484559455425523E-002   2.2784389678480292E-004   0.0000000000000000     
  -1.5454179295940489E-002  -1.4260726796503746E-003   0.0000000000000000     
   0.0000000000000000        0.0000000000000000        0.0000000000000000     
   9.6060772824751138E-004   2.0715106578124826E-002   0.0000000000000000     
  -9.5534535663627101E-003   1.4644758003090279E-002   0.0000000000000000     
  -1.9473780005368022E-002   7.5721575748759087E-004   0.0000000000000000     
  -1.6731967710305773E-002  -1.9792586760920029E-003   0.0000000000000000     
   0.0000000000000000        0.0000000000000000        0.0000000000000000     
   7.1483004274235768E-004   2.0096422240738949E-002   0.0000000000000000     
  -8.9908877353883036E-003   1.4711903002068014E-002   0.0000000000000000     
  -1.8576916733002949E-002   1.3417612405497352E-003   0.0000000000000000     
  -1.7503020348712549E-002  -2.5186840872533337E-003   0.0000000000000000     
   0.0000000000000000        0.0000000000000000        0.0000000000000000     
   7.1483004274235768E-004   2.0096422240738949E-002   0.0000000000000000     
  -8.9908877353883036E-003   1.4711903002068014E-002   0.0000000000000000     
  -1.8576916733002949E-002   1.3417612405497352E-003   0.0000000000000000     
  -1.7503020348712549E-002  -2.5186840872533337E-003   0.0000000000000000     
   0.0000000000000000        0.0000000000000000        0.0000000000000000     
   5.5108477864702096E-004   1.9355536282936830E-002   0.0000000000000000     
  -8.5272666798102744E-003   1.4809636366515567E-002   0.0000000000000000     
  -1.7767333342984675E-002   1.9890236085595078E-003   0.0000000000000000     
  -1.7701394178488993E-002  -3.4795786331080361E-003   0.0000000000000000     
   0.0000000000000000        0.0000000000000000        0.0000000000000000     
   4.2507006653982329E-004   1.8575036173337323E-002   0.0000000000000000     
  -8.1462762029020728E-003   1.4960171576090885E-002   0.0000000000000000     
  -1.7006063705015981E-002   2.6656775820101341E-003   0.0000000000000000     
  -1.7446317336492208E-002  -4.7981744351554591E-003   0.0000000000000000     
   0.0000000000000000        0.0000000000000000        0.0000000000000000     
   2.9140141513828258E-004   1.7848555237743677E-002   0.0000000000000000     
  -7.8225534179553729E-003   1.5165483024955901E-002   0.0000000000000000     
  -1.6251059230061718E-002   3.3281807458710737E-003   0.0000000000000000     
  -1.6903310751961532E-002  -6.2859542152763704E-003   0.0000000000000000     
   0.0000000000000000        0.0000000000000000        0.0000000000000000     
   1.0469433315991709E-004   1.7269726801959120E-002   0.0000000000000000     
  -7.5307354382618376E-003   1.5427545107272532E-002   0.0000000000000000     
  -1.5460271329086750E-002   3.9329906851117945E-003   0.0000000000000000     
  -1.6237895354136302E-002  -7.7544006953515392E-003   0.0000000000000000     
   0.0000000000000000        0.0000000000000000        0.0000000000000000     
   1.0469433315991709E-004   1.7269726801959120E-002   0.0000000000000000     
  -7.5307354382618376E-003   1.5427545107272532E-002   0.0000000000000000     
  -1.5460271329086750E-002   3.9329906851117945E-003   0.0000000000000000     
  -1.6237895354136302E-002  -7.7544006953515392E-003   0.0000000000000000     
   0.0000000000000000        0.0000000000000000        0.0000000000000000     
  -1.6582521549177197E-004   1.6902703725896917E-002   0.0000000000000000     
  -7.2487812124509268E-003   1.5742818332134006E-002   0.0000000000000000     
  -1.4602579151049094E-002   4.4485930835254511E-003   0.0000000000000000     
  -1.5580930191457905E-002  -9.0517227551145645E-003   0.0000000000000000     
   0.0000000000000000        0.0000000000000000        0.0000000000000000     
  -4.9248944616935638E-004   1.6693717005910502E-002   0.0000000000000000     
  -6.9679370305031898E-003   1.6085707668358738E-002   0.0000000000000000     
  -1.3690572796879436E-002   4.8915860202000082E-003   0.0000000000000000     
  -1.4924626789176033E-002  -1.0173033905710392E-002   0.0000000000000000     
   0.0000000000000000        0.0000000000000000        0.0000000000000000     
  -8.3302011903942314E-004   1.6559517172463331E-002   0.0000000000000000     
  -6.6827710177369600E-003   1.6425104199696432E-002   0.0000000000000000     
  -1.2747770105501627E-002   5.2905956730471210E-003   0.0000000000000000     
  -1.4226534791742424E-002  -1.1150173816136786E-002   0.0000000000000000     
   0.0000000000000000        0.0000000000000000        0.0000000000000000     
  -1.1451389942685629E-003   1.6416854756018871E-002   0.0000000000000000     
  -6.3878512994705794E-003   1.6729899009896802E-002   0.0000000000000000     
  -1.1797688915839516E-002   5.6742482199784502E-003   0.0000000000000000     
  -1.3444203843608823E-002  -1.2014982155391525E-002   0.0000000000000000     
   0.0000000000000000        0.0000000000000000        0.0000000000000000     
  -1.1451389942685629E-003   1.6416854756018871E-002   0.0000000000000000     
  -6.3878512994705794E-003   1.6729899009896802E-002   0.0000000000000000     
  -1.1797688915839516E-002   5.6742482199784502E-003   0.0000000000000000     
  -1.3444203843608823E-002  -1.2014982155391525E-002   0.0000000000000000     
   0.0000000000000000        0.0000000000000000        0.0000000000000000     
  -1.3975895668904333E-003   1.6198998630048190E-002   0.0000000000000000     
  -6.0795579584025849E-003   1.6976030186249672E-002   0.0000000000000000     
  -1.0858287144864774E-002   6.0657999466154850E-003   0.0000000000000000     
  -1.2546159096605312E-002  -1.2796986810843283E-002   0.0000000000000000     
   0.0000000000000000        0.0000000000000000        0.0000000000000000     
  -1.6032022714069748E-003   1.5905291040052734E-002   0.0000000000000000     
  -5.7615189067523470E-003   1.7167623830205266E-002   0.0000000000000000     
  -9.9252830217403630E-003   6.4670275694190676E-003   0.0000000000000000     
  -1.1544827732075281E-002  -1.3516468543344365E-002   0.0000000000000000     
   0.0000000000000000        0.0000000000000000        0.0000000000000000     
  -1.7858292771871925E-003   1.5551592574541572E-002   0.0000000000000000     
  -5.4391740141194406E-003   1.7315853046753951E-002   0.0000000000000000     
  -8.9888348536770815E-003   6.8743379125598613E-003   0.0000000000000000     
  -1.0463612438740451E-002  -1.4191396332117962E-002   0.0000000000000000     
   0.0000000000000000        0.0000000000000000        0.0000000000000000     
  -1.9693227536000954E-003   1.5153763822023748E-002   0.0000000000000000     
  -5.1179631501034493E-003   1.7431890940886072E-002   0.0000000000000000     
  -8.0391009478857165E-003   7.2841378002085396E-003   0.0000000000000000     
  -9.3259159053225467E-003  -1.4839739156387288E-002   0.0000000000000000     
   0.0000000000000000        0.0000000000000000        0.0000000000000000     
  -1.9693227536000954E-003   1.5153763822023748E-002   0.0000000000000000     
  -5.1179631501034493E-003   1.7431890940886072E-002   0.0000000000000000     
  -8.0391009478857165E-003   7.2841378002085396E-003   0.0000000000000000     
  -9.3259159053225467E-003  -1.4839739156387288E-002   0.0000000000000000     
   0.0000000000000000        0.0000000000000000        0.0000000000000000     
  -2.1745583325967236E-003   1.4726725824438808E-002   0.0000000000000000     
  -4.8026693881912941E-003   1.7523745598386958E-002   0.0000000000000000     
  -7.0673274240123278E-003   7.6911175733117478E-003   0.0000000000000000     
  -8.1515266972884345E-003  -1.5471099999319506E-002   0.0000000000000000     
   0.0000000000000000        0.0000000000000000        0.0000000000000000     
  -2.4105054964562440E-003   1.4281641437448245E-002   0.0000000000000000     
  -4.4954486174192806E-003   1.7586765028221815E-002   0.0000000000000000     
  -6.0691116514440691E-003   8.0831016399200411E-003   0.0000000000000000     
  -6.9457768870855724E-003  -1.6061617859857703E-002   0.0000000000000000     
   0.0000000000000000        0.0000000000000000        0.0000000000000000     
  -2.6831571900398582E-003   1.3828733970144046E-002   0.0000000000000000     
  -4.1977999307110615E-003   1.7613132220150804E-002   0.0000000000000000     
  -5.0411388120033740E-003   8.4461979248599394E-003   0.0000000000000000     
  -5.7103844239065563E-003  -1.6579065740888906E-002   0.0000000000000000     
   0.0000000000000000        0.0000000000000000        0.0000000000000000     
  -2.9985063582087640E-003   1.3378226731618193E-002   0.0000000000000000     
  -3.9112224209902876E-003   1.7595030163934138E-002   0.0000000000000000     
  -3.9800940875126655E-003   8.7665143529579766E-003   0.0000000000000000     
  -4.4470672569439885E-003  -1.6991216645300171E-002   0.0000000000000000     
   0.0000000000000000        0.0000000000000000        0.0000000000000000     
  -2.9985063582087640E-003   1.3378226731618193E-002   0.0000000000000000     
  -3.9112224209902876E-003   1.7595030163934138E-002   0.0000000000000000     
  -3.9800940875126655E-003   8.7665143529579766E-003   0.0000000000000000     
  -4.4470672569439885E-003  -1.6991216645300171E-002   0.0000000000000000     
   0.0000000000000000        0.0000000000000000        0.0000000000000000     
  -3.3571866703120635E-003   1.2941178988376940E-002   0.0000000000000000     
  -3.6370176504030428E-003   1.7531363260348223E-002   0.0000000000000000     
  -2.8868150441493682E-003   9.0340615361739224E-003   0.0000000000000000     
  -3.1539009554274748E-003  -1.7287217463885861E-002   0.0000000000000000     
   0.0000000000000000        0.0000000000000000        0.0000000000000000     
  -3.7383946936504655E-003   1.2531993836583681E-002   0.0000000000000000     
  -3.3756970579851180E-003   1.7447921554234427E-002   0.0000000000000000     
  -1.7787487855108720E-003   9.2544608350005383E-003   0.0000000000000000     
  -1.8143915687346493E-003  -1.7541710639069660E-002   0.0000000000000000     
   0.0000000000000000        0.0000000000000000        0.0000000000000000     
  -4.1159677200125798E-003   1.2165910329816084E-002   0.0000000000000000     
  -3.1275745519947352E-003   1.7377216501450372E-002   0.0000000000000000     
  -6.7749479954956106E-004   9.4372362970638370E-003   0.0000000000000000     
  -4.0840276628015092E-004  -1.7850712501182534E-002   0.0000000000000000     
   0.0000000000000000        0.0000000000000000        0.0000000000000000     
  -4.4637430411870131E-003   1.1858167521651804E-002   0.0000000000000000     
  -2.8929640406901197E-003   1.7351759557853667E-002   0.0000000000000000     
   3.9534742578217899E-004   9.5919119699898227E-003   0.0000000000000000     
   1.0842017825213801E-003  -1.8310239380555496E-002   0.0000000000000000     
   0.0000000000000000        0.0000000000000000        0.0000000000000000     
  -4.4637430411870131E-003   1.1858167521651804E-002   0.0000000000000000     
  -2.8929640406901197E-003   1.7351759557853667E-002   0.0000000000000000     
   3.9534742578217899E-004   9.5919119699898227E-003   0.0000000000000000     
   1.0842017825213801E-003  -1.8310239380555496E-002   0.0000000000000000     
   0.0000000000000000        0.0000000000000000        0.0000000000000000     
  -4.7671278065570246E-003   1.1622749120904174E-002   0.0000000000000000     
  -2.6724177576613259E-003   1.7391548316732914E-002   0.0000000000000000     
   1.4282623818402248E-003   9.7222473766604370E-003   0.0000000000000000     
   2.6790448471007513E-003  -1.8969303910139044E-002   0.0000000000000000     
   0.0000000000000000        0.0000000000000000        0.0000000000000000     
  -5.0578085958844689E-003   1.1468617457329142E-002   0.0000000000000000     
  -2.4674412378257460E-003   1.7466524921100623E-002   0.0000000000000000     
   2.4500704772134913E-003   9.8089439409813437E-003   0.0000000000000000     
   4.3736949522705645E-003  -1.9688903933361760E-002   0.0000000000000000     
   0.0000000000000000        0.0000000000000000        0.0000000000000000     
  -5.3790418465258479E-003   1.1403479515918332E-002   0.0000000000000000     
  -2.2797783414326041E-003   1.7534117651400272E-002   0.0000000000000000     
   3.4996760997991561E-003   9.8269385621141490E-003   0.0000000000000000     
   6.1612070616888642E-003  -2.0283033596271729E-002   0.0000000000000000     
   0.0000000000000000        0.0000000000000000        0.0000000000000000     
  -5.7740839958376616E-003   1.1435042281663350E-002   0.0000000000000000     
  -2.1111729287311295E-003   1.7551754788075368E-002   0.0000000000000000     
   4.6159836374943921E-003   9.7511681392204487E-003   0.0000000000000000     
   8.0346361390136994E-003  -2.0565687044917045E-002   0.0000000000000000     
   0.0000000000000000        0.0000000000000000        0.0000000000000000     
  -5.7740839958376616E-003   1.1435042281663350E-002   0.0000000000000000     
  -2.1111729287311295E-003   1.7551754788075368E-002   0.0000000000000000     
   4.6159836374943921E-003   9.7511681392204487E-003   0.0000000000000000     
   8.0346361390136994E-003  -2.0565687044917045E-002   0.0000000000000000     
   0.0000000000000000        0.0000000000000000        0.0000000000000000     
  -6.2757926290264677E-003   1.1555028032964123E-002   0.0000000000000000     
  -1.9657987707345885E-003   1.7487543879612325E-002   0.0000000000000000     
   5.8237722945256414E-003   9.5700552977049484E-003   0.0000000000000000     
   9.9867112864042325E-003  -2.0424929954997680E-002   0.0000000000000000     
   0.0000000000000000        0.0000000000000000        0.0000000000000000     
  -6.8754299226990341E-003   1.1691220221853852E-002   0.0000000000000000     
  -1.8575492815124271E-003   1.7352309546669296E-002   0.0000000000000000     
   7.0913205404364186E-003   9.3259655679448182E-003   0.0000000000000000     
   1.2008858160024092E-002  -2.0045114120821109E-002   0.0000000000000000     
   0.0000000000000000        0.0000000000000000        0.0000000000000000     
  -7.5538592013121861E-003   1.1755417593774044E-002   0.0000000000000000     
  -1.8027477858981323E-003   1.7167555677947359E-002   0.0000000000000000     
   8.3727816610994904E-003   9.0747502065603204E-003   0.0000000000000000     
   1.4092176554538018E-002  -1.9684662866346694E-002   0.0000000000000000     
   0.0000000000000000        0.0000000000000000        0.0000000000000000     
  -8.2919437893227525E-003   1.1659418894166216E-002   0.0000000000000000     
  -1.8177176087251943E-003   1.6954786162147593E-002   0.0000000000000000     
   9.6223089423876501E-003   8.8722604701717278E-003   0.0000000000000000     
   1.6227766264610755E-002  -1.9601999515533798E-002   0.0000000000000000     
 </DataArray>
 </PointData>
 </Piece>
 <Piece  NumberOfPoints="           200 "  NumberOfCells="          128 ">
 <Points>
 <DataArray  type="Float64" NumberOfComponents="3"  format="ascii" >
   0.0000000000000000        0.0000000000000000        0.0000000000000000     
   2.5000000000000000        0.0000000000000000        0.0000000000000000     
   5.0000000000000000        0.0000000000000000        0.0000000000000000     
   7.5000000000000000        0.0000000000000000        0.0000000000000000     
   10.000000000000000        0.0000000000000000        0.0000000000000000     
   0.0000000000000000       0.15625000000000000        0.0000000000000000     
   2.5000000000000000       0.15625000000000000        0.0000000000000000     
   5.0000000000000000       0.15624999999999997        0.0000000000000000     
   7.5000000000000000       0.15625000000000003        0.0000000000000000     
   10.000000000000000       0.15625000000000000        0.0000000000000000     
   0.0000000000000000       0.31250000000000006        0.0000000000000000     
   2.5000000000000000       0.31250000000000000        0.0000000000000000     
   5.0000000000000000       0.31250000000000006        0.0000000000000000     
   7.4999999999999982       0.31249999999999994        0.0000000000000000     
   10.000000000000000       0.31250000000000006        0.0000000000000000     
   0.0000000000000000       0.46875000000000000        0.0000000000000000     
   2.5000000000000000       0.46875000000000000        0.0000000000000000     
   5.0000000000000000       0.46875000000000000        0.0000000000000000     
   7.5000000000000000       0.46875000000000000        0.0000000000000000     
   10.000000000000000       0.46875000000000000        0.0000000000000000     
   0.0000000000000000       0.62500000000000011        0.0000000000000000     
   2.5000000000000000       0.62500000000000000        0.0000000000000000     
   5.0000000000000009       0.62500000000000000        0.0000000000000000     
   7.4999999999999991       0.62500000000000000        0.0000000000000000     
   10.000000000000000       0.62500000000000011        0.0000000000000000     
   0.0000000000000000       0.62500000000000011        0.0000000000000000     
   2.5000000000000000       0.62500000000000000        0.0000000000000000     
   5.0000000000000009       0.62500000000000000        0.0000000000000000     
   7.4999999999999991       0.62500000000000000        0.0000000000000000     
   10.000000000000000       0.62500000000000011        0.0000000000000000     
   0.0000000000000000       0.78124999999999989        0.0000000000000000     
   2.5000000000000000       0.78125000000000011        0.0000000000000000     
   5.0000000000000009       0.78125000000000011        0.0000000000000000     
   7.5000000000000000       0.78125000000000000        0.0000000000000000     
   9.9999999999999982       0.78124999999999989        0.0000000000000000     
   0.0000000000000000       0.93749999999999989        0.0000000000000000     
   2.5000000000000000       0.93749999999999989        0.0000000000000000     
   5.0000000000000000       0.93750000000000000        0.0000000000000000     
   7.4999999999999991       0.93749999999999989        0.0000000000000000     
   10.000000000000000       0.93749999999999989        0.0000000000000000     
   0.0000000000000000        1.0937499999999998        0.0000000000000000     
   2.5000000000000000        1.0937500000000000        0.0000000000000000     
   5.0000000000000009        1.0937500000000004        0.0000000000000000     
   7.5000000000000000        1.0937500000000000        0.0000000000000000     
   10.000000000000000        1.0937499999999998        0.0000000000000000     
   0.0000000000000000        1.2500000000000002        0.0000000000000000     
   2.4999999999999996        1.2500000000000000        0.0000000000000000     
   4.9999999999999991        1.2499999999999998        0.0000000000000000     
   7.5000000000000009        1.2500000000000002        0.0000000000000000     