 <VTKFile type="UnstructuredGrid"  version="0.1"   >
 <UnstructuredGrid>
 <Piece  NumberOfPoints="           200 "  NumberOfCells="          128 ">
 <Points>
 <DataArray  type="Float64" NumberOfComponents="3"  format="ascii" >
  -10.000000000000000        0.0000000000000000        0.0000000000000000     
  -7.5000000000000000        0.0000000000000000        0.0000000000000000     
  -5.0000000000000000        0.0000000000000000        0.0000000000000000     
  -2.4999999999999996        0.0000000000000000        0.0000000000000000     
   0.0000000000000000        0.0000000000000000        0.0000000000000000     
  -10.000000000000000       0.15625000000000000        0.0000000000000000     
  -7.5000000000000000       0.15625000000000000        0.0000000000000000     
  -5.0000000000000000       0.15624999999999997        0.0000000000000000     
  -2.5000000000000000       0.15625000000000003        0.0000000000000000     
   0.0000000000000000       0.15625000000000000        0.0000000000000000     
  -10.000000000000000       0.31250000000000006        0.0000000000000000     
  -7.5000000000000000       0.31250000000000000        0.0000000000000000     
  -5.0000000000000000       0.31250000000000006        0.0000000000000000     
  -2.4999999999999996       0.31249999999999994        0.0000000000000000     
   0.0000000000000000       0.31250000000000006        0.0000000000000000     
  -10.000000000000000       0.46875000000000000        0.0000000000000000     
  -7.5000000000000000       0.46875000000000000        0.0000000000000000     
  -5.0000000000000000       0.46875000000000000        0.0000000000000000     
  -2.4999999999999996       0.46875000000000000        0.0000000000000000     
   0.0000000000000000       0.46875000000000000        0.0000000000000000     
  -10.000000000000000       0.62500000000000011        0.0000000000000000     
  -7.5000000000000000       0.62500000000000000        0.0000000000000000     
  -5.0000000000000009       0.62500000000000000        0.0000000000000000     
  -2.4999999999999996       0.62500000000000000        0.0000000000000000     
   0.0000000000000000       0.62500000000000011        0.0000000000000000     
  -10.000000000000000       0.62500000000000011        0.0000000000000000     
  -7.5000000000000000       0.62500000000000000        0.0000000000000000     
  -5.0000000000000009       0.62500000000000000        0.0000000000000000     
  -2.4999999999999996       0.62500000000000000        0.0000000000000000     
   0.0000000000000000       0.62500000000000011        0.0000000000000000     
  -9.9999999999999982       0.78124999999999989        0.0000000000000000     
  -7.5000000000000000       0.78125000000000011        0.0000000000000000     
  -5.0000000000000009       0.78125000000000011        0.0000000000000000     
  -2.4999999999999996       0.78125000000000000        0.0000000000000000     
   0.0000000000000000       0.78124999999999989        0.0000000000000000     
  -10.000000000000000       0.93749999999999989        0.0000000000000000     
  -7.4999999999999991       0.93749999999999989        0.0000000000000000     
  -5.0000000000000000       0.93750000000000000        0.0000000000000000     
  -2.5000000000000000       0.93749999999999989        0.0000000000000000     
   0.0000000000000000       0.93749999999999989        0.0000000000000000     
  -10.000000000000000        1.0937499999999998        0.0000000000000000     
  -7.5000000000000000        1.0937500000000000        0.0000000000000000     
  -5.0000000000000009        1.0937500000000004        0.0000000000000000     
  -2.5000000000000000        1.0937500000000000        0.0000000000000000     
   0.0000000000000000        1.0937499999999998        0.0000000000000000     
  -10.000000000000004        1.2500000000000002        0.0000000000000000     
  -7.5000000000000000        1.2500000000000000        0.0000000000000000     
  -4.9999999999999991        1.2499999999999998        0.0000000000000000     
  -2.5000000000000000        1.2500000000000002        0.0000000000000000     
   0.0000000000000000        1.2500000000000002        0.0000000000000000     
  -10.000000000000004        1.2500000000000002        0.0000000000000000     
  -7.5000000000000000        1.2500000000000000        0.0000000000000000     
  -4.9999999999999991        1.2499999999999998        0.0000000000000000     
  -2.5000000000000000        1.2500000000000002        0.0000000000000000     
   0.0000000000000000        1.2500000000000002        0.0000000000000000     
  -9.9999999999999982        1.4062499999999998        0.0000000000000000     
  -7.4999999999999991        1.4062500000000000        0.0000000000000000     
  -5.0000000000000009        1.4062500000000002        0.0000000000000000     
  -2.5000000000000000        1.4062500000000000        0.0000000000000000     
   0.0000000000000000        1.4062499999999998        0.0000000000000000     
  -10.000000000000002        1.5625000000000002        0.0000000000000000     
  -7.4999999999999982        1.5624999999999998        0.0000000000000000     
  -5.0000000000000009        1.5625000000000004        0.0000000000000000     
  -2.5000000000000004        1.5625000000000000        0.0000000000000000     
   0.0000000000000000        1.5625000000000002        0.0000000000000000     
  -10.000000000000002        1.7187500000000002        0.0000000000000000     
  -7.5000000000000000        1.7187500000000000        0.0000000000000000     
  -4.9999999999999982        1.7187500000000000        0.0000000000000000     
  -2.4999999999999996        1.7187500000000002        0.0000000000000000     
   0.0000000000000000        1.7187500000000002        0.0000000000000000     
  -10.000000000000004        1.8750000000000004        0.0000000000000000     
  -7.5000000000000000        1.8750000000000000        0.0000000000000000     
  -4.9999999999999991        1.8750000000000000        0.0000000000000000     
  -2.5000000000000000        1.8750000000000002        0.0000000000000000     
   0.0000000000000000        1.8750000000000004        0.0000000000000000     
  -10.000000000000004        1.8750000000000004        0.0000000000000000     
  -7.5000000000000000        1.8750000000000000        0.0000000000000000     
  -4.9999999999999991        1.8750000000000000        0.0000000000000000     
  -2.5000000000000000        1.8750000000000002        0.0000000000000000     
   0.0000000000000000        1.8750000000000004        0.0000000000000000     
  -9.9999999999999982        2.0312500000000000        0.0000000000000000     
  -7.4999999999999991        2.0312500000000000        0.0000000000000000     
  -5.0000000000000009        2.0312500000000004        0.0000000000000000     
  -2.5000000000000000        2.0312500000000000        0.0000000000000000     
   0.0000000000000000        2.0312500000000000        0.0000000000000000     
  -10.000000000000002        2.1875000000000004        0.0000000000000000     
  -7.4999999999999982        2.1874999999999996        0.0000000000000000     
  -5.0000000000000009        2.1875000000000004        0.0000000000000000     
  -2.5000000000000004        2.1875000000000004        0.0000000000000000     
   0.0000000000000000        2.1875000000000004        0.0000000000000000     
  -10.000000000000002        2.3437500000000004        0.0000000000000000     
  -7.5000000000000000        2.3437500000000000        0.0000000000000000     
  -4.9999999999999982        2.3437499999999996        0.0000000000000000     
  -2.4999999999999996        2.3437500000000004        0.0000000000000000     
   0.0000000000000000        2.3437500000000004        0.0000000000000000     
  -10.000000000000004        2.5000000000000004        0.0000000000000000     
  -7.5000000000000000        2.5000000000000000        0.0000000000000000     
  -4.9999999999999991        2.5000000000000000        0.0000000000000000     
  -2.5000000000000000        2.5000000000000000        0.0000000000000000     
   0.0000000000000000        2.5000000000000004        0.0000000000000000     
  -10.000000000000004        2.5000000000000004        0.0000000000000000     
  -7.5000000000000000        2.5000000000000000        0.0000000000000000     
  -4.9999999999999991        2.5000000000000000        0.0000000000000000     
  -2.5000000000000000        2.5000000000000000        0.0000000000000000     
   0.0000000000000000        2.5000000000000004        0.0000000000000000     
  -9.9999999999999982        2.6562500000000000        0.0000000000000000     
  -7.4999999999999991        2.6562500000000000        0.0000000000000000     
  -5.0000000000000009        2.6562500000000004        0.0000000000000000     
  -2.5000000000000000        2.6562500000000000        0.0000000000000000     
   0.0000000000000000        2.6562500000000000        0.0000000000000000     
  -10.000000000000002        2.8125000000000004        0.0000000000000000     
  -7.4999999999999982        2.8124999999999996        0.0000000000000000     
  -5.0000000000000009        2.8125000000000004        0.0000000000000000     
  -2.5000000000000004        2.8125000000000000        0.0000000000000000     
   0.0000000000000000        2.8125000000000004        0.0000000000000000     
  -10.000000000000002        2.9687500000000000        0.0000000000000000     
  -7.5000000000000000        2.9687499999999996        0.0000000000000000     
  -4.9999999999999982        2.9687500000000000        0.0000000000000000     
  -2.4999999999999996        2.9687500000000004        0.0000000000000000     
   0.0000000000000000        2.9687500000000000        0.0000000000000000     
  -10.000000000000004        3.1250000000000000        0.0000000000000000     
  -7.5000000000000000        3.1250000000000000        0.0000000000000000     
  -4.9999999999999991        3.1250000000000000        0.0000000000000000     
[...]
 <PointData>
 <DataArray  type="Float64" Name="disp" NumberOfComponents="3" format="ascii">
   0.0000000000000000        0.0000000000000000        0.0000000000000000     
   2.5579829466560476E-002   8.2201080699825999E-003   0.0000000000000000     
   7.3338491433001612E-002  -5.8934111914648972E-004   0.0000000000000000     
  0.10612199793205503       -9.8652278541251030E-003   0.0000000000000000     
   8.6776360996452320E-002  -3.0444324216910767E-003   0.0000000000000000     
   0.0000000000000000        0.0000000000000000        0.0000000000000000     
   2.6959376603510252E-002   7.2218985182783005E-003   0.0000000000000000     
   7.3772480266927232E-002  -1.5465937378115555E-003   0.0000000000000000     
  0.10519384031391706       -1.0020429060005434E-002   0.0000000000000000     
   8.5977986068145759E-002  -1.9145597400391822E-003   0.0000000000000000     
   0.0000000000000000        0.0000000000000000        0.0000000000000000     
   2.8771260305339753E-002   6.1694885936444382E-003   0.0000000000000000     
   7.4153060396369139E-002  -2.5036321194736285E-003   0.0000000000000000     
  0.10380452421645817       -1.0146820700189766E-002   0.0000000000000000     
   8.5384775708976887E-002  -8.8753570933955178E-004   0.0000000000000000     
   0.0000000000000000        0.0000000000000000        0.0000000000000000     
   3.0855243343356320E-002   5.1434603437970705E-003   0.0000000000000000     
   7.4470895601734532E-002  -3.3914288161023755E-003   0.0000000000000000     
  0.10209774244295741       -1.0245537350007033E-002   0.0000000000000000     
   8.4986569534847761E-002  -5.9735128225590502E-005   0.0000000000000000     
   0.0000000000000000        0.0000000000000000        0.0000000000000000     
   3.3051088488867314E-002   4.2243958164522666E-003   0.0000000000000000     
   7.4716649663430737E-002  -4.1409563796674740E-003   0.0000000000000000     
  0.10021718779669388       -1.0317713584786153E-002   0.0000000000000000     
   8.4773207161660397E-002   4.7246720466929547E-004   0.0000000000000000     
   0.0000000000000000        0.0000000000000000        0.0000000000000000     
   3.3051088488867314E-002   4.2243958164522666E-003   0.0000000000000000     
   7.4716649663430737E-002  -4.1409563796674740E-003   0.0000000000000000     
  0.10021718779669388       -1.0317713584786153E-002   0.0000000000000000     
   8.4773207161660397E-002   4.7246720466929547E-004   0.0000000000000000     
   0.0000000000000000        0.0000000000000000        0.0000000000000000     
   3.5211764492768409E-002   3.4682367493937818E-003   0.0000000000000000     
   7.4887633264159842E-002  -4.7046445117473485E-003   0.0000000000000000     
   9.8298000191345658E-002  -1.0363290868350692E-002   0.0000000000000000     
   8.4713259151497106E-002   6.4765059465645238E-004   0.0000000000000000     
   0.0000000000000000        0.0000000000000000        0.0000000000000000     
   3.7243064024308416E-002   2.8323636406761350E-003   0.0000000000000000     
   7.5007744695803666E-002  -5.1207515123554417E-003   0.0000000000000000     
   9.6441107982187343E-002  -1.0377438218502741E-002   0.0000000000000000     
   8.4690219851161153E-002   5.4421076282623083E-004   0.0000000000000000     
   0.0000000000000000        0.0000000000000000        0.0000000000000000     
   3.9063985732324495E-002   2.2495166784215447E-003   0.0000000000000000     
   7.5107529152538891E-002  -5.4489928311139552E-003   0.0000000000000000     
   9.4738886634892799E-002  -1.0354131541539044E-002   0.0000000000000000     
   8.4566314553635960E-002   2.7549753421373302E-004   0.0000000000000000     
   0.0000000000000000        0.0000000000000000        0.0000000000000000     
   4.0593528265653808E-002   1.6524360507522203E-003   0.0000000000000000     
   7.5217531828542100E-002  -5.7490839176450835E-003   0.0000000000000000     
   9.3283711615135642E-002  -1.0287346743756328E-002   0.0000000000000000     
   8.4203768551905075E-002  -4.5139266145938597E-005   0.0000000000000000     
   0.0000000000000000        0.0000000000000000        0.0000000000000000     
   4.0593528265653808E-002   1.6524360507522203E-003   0.0000000000000000     
   7.5217531828542100E-002  -5.7490839176450835E-003   0.0000000000000000     
   9.3283711615135642E-002  -1.0287346743756328E-002   0.0000000000000000     
   8.4203768551905075E-002  -4.5139266145938597E-005   0.0000000000000000     
   0.0000000000000000        0.0000000000000000        0.0000000000000000     
   4.1785834619031730E-002   9.8660521663308798E-004   0.0000000000000000     
   7.5357673178963691E-002  -6.0680053094004085E-003   0.0000000000000000     
   9.2130321392508110E-002  -1.0172018812242776E-002   0.0000000000000000     
   8.3518584972377227E-002  -3.3362252603629536E-004   0.0000000000000000     
   0.0000000000000000        0.0000000000000000        0.0000000000000000     
   4.2735625170786801E-002   2.4848071839991836E-004   0.0000000000000000     
   7.5505374702848307E-002  -6.4017978951490511E-003   0.0000000000000000     
   9.1182906452276308E-002  -1.0006919057252322E-002   0.0000000000000000     
   8.2641878275162686E-002  -6.2296598451530149E-004   0.0000000000000000     
   0.0000000000000000        0.0000000000000000        0.0000000000000000     
   4.3572764645145798E-002  -5.5273763076880695E-004   0.0000000000000000     
   7.5627433160214183E-002  -6.7337676514895133E-003   0.0000000000000000     
   9.0308020283624724E-002  -9.7917778698303499E-003   0.0000000000000000     
   8.1758540753796918E-002  -9.7545609345953382E-004   0.0000000000000000     
   0.0000000000000000        0.0000000000000000        0.0000000000000000     
   4.4427117766335504E-002  -1.4078500176946066E-003   0.0000000000000000     
   7.5690645311079732E-002  -7.0472205550203013E-003   0.0000000000000000     
   8.9372216375737959E-002  -9.5263256410222374E-003   0.0000000000000000     
   8.1053464701815459E-002  -1.4533793047455696E-003   0.0000000000000000     
   0.0000000000000000        0.0000000000000000        0.0000000000000000     
   4.4427117766335504E-002  -1.4078500176946066E-003   0.0000000000000000     
   7.5690645311079732E-002  -7.0472205550203013E-003   0.0000000000000000     
   8.9372216375737959E-002  -9.5263256410222374E-003   0.0000000000000000     
   8.1053464701815459E-002  -1.4533793047455696E-003   0.0000000000000000     
   0.0000000000000000        0.0000000000000000        0.0000000000000000     
   4.5377254264639996E-002  -2.3051257485162614E-003   0.0000000000000000     
   7.5671208806065912E-002  -7.3274180503896235E-003   0.0000000000000000     
   8.8294202081581064E-002  -9.2124603534704183E-003   0.0000000000000000     
   8.0658572548488697E-002  -2.1058361056089806E-003   0.0000000000000000     
   0.0000000000000000        0.0000000000000000        0.0000000000000000     
   4.6296563894572623E-002  -3.2227106066416047E-003   0.0000000000000000     
   7.5582924858204767E-002  -7.5674434544445428E-003   0.0000000000000000     
   8.7201300209241162E-002  -8.8607503562055379E-003   0.0000000000000000     
   8.0493907266026551E-002  -2.9291831247213180E-003   0.0000000000000000     
   0.0000000000000000        0.0000000000000000        0.0000000000000000     
   4.7007141416704069E-002  -4.1362194947957244E-003   0.0000000000000000     
   7.5448995571131036E-002  -7.7623355520818208E-003   0.0000000000000000     
   8.6272987430585951E-002  -8.4839315898552863E-003   0.0000000000000000     
   8.0426541962373727E-002  -3.9065910261131256E-003   0.0000000000000000     
   0.0000000000000000        0.0000000000000000        0.0000000000000000     
   4.7331081591604957E-002  -5.0212673157037178E-003   0.0000000000000000     
   7.5292623048479529E-002  -7.9071331281982335E-003   0.0000000000000000     
   8.5688740417483103E-002  -8.0947399950473727E-003   0.0000000000000000     
   8.0323549745474968E-002  -5.0212304738149471E-003   0.0000000000000000     
   0.0000000000000000        0.0000000000000000        0.0000000000000000     
   4.7331081591604957E-002  -5.0212673157037178E-003   0.0000000000000000     
   7.5292623048479529E-002  -7.9071331281982335E-003   0.0000000000000000     
   8.5688740417483103E-002  -8.0947399950473727E-003   0.0000000000000000     
   8.0323549745474968E-002  -5.0212304738149471E-003   0.0000000000000000     
   0.0000000000000000        0.0000000000000000        0.0000000000000000     
   4.7163530815549998E-002  -5.8603352892874563E-003   0.0000000000000000     
   7.5133066831189879E-002  -8.0006453905937889E-003   0.0000000000000000     
   8.5560724872809357E-002  -7.7036955560856281E-003   0.0000000000000000     
   8.0098621766298256E-002  -6.2522510379296155E-003   0.0000000000000000     
   0.0000000000000000        0.0000000000000000        0.0000000000000000     
   4.6691842027630083E-002  -6.6633699042559493E-003   0.0000000000000000     
   7.4973816209421368E-002  -8.0567632386814494E-003   0.0000000000000000     
   8.5731862623478053E-002  -7.3124544319785011E-003   0.0000000000000000     
   7.9851921347904406E-002  -7.5627179128491175E-003   0.0000000000000000     
   0.0000000000000000        0.0000000000000000        0.0000000000000000     
   4.6176419802640117E-002  -7.4471839665149848E-003   0.0000000000000000     
   7.4814417910638170E-002  -8.0931479947774169E-003   0.0000000000000000     
   8.5977764527411502E-002  -6.9204568254105725E-003   0.0000000000000000     
   7.9730229856377385E-002  -8.9116751990377194E-003   0.0000000000000000     
   0.0000000000000000        0.0000000000000000        0.0000000000000000     
   4.5877668715375047E-002  -8.2285902819703473E-003   0.0000000000000000     
   7.4654418662304545E-002  -8.1274609811979055E-003   0.0000000000000000     
   8.6074041442532112E-002  -6.5271429390664380E-003   0.0000000000000000     
   7.9880328657801217E-002  -1.0258166996959694E-002   0.0000000000000000     
   0.0000000000000000        0.0000000000000000        0.0000000000000000     
   4.5877668715375047E-002  -8.2285902819703473E-003   0.0000000000000000     
   7.4654418662304545E-002  -8.1274609811979055E-003   0.0000000000000000     
   8.6074041442532112E-002  -6.5271429390664380E-003   0.0000000000000000     
   7.9880328657801217E-002  -1.0258166996959694E-002   0.0000000000000000     
   0.0000000000000000        0.0000000000000000        0.0000000000000000     
   4.5971553838278792E-002  -9.0231435193291742E-003   0.0000000000000000     
   7.4494318670873000E-002  -8.1758489209578806E-003   0.0000000000000000     
   8.5869253183683839E-002  -6.1320764034927065E-003   0.0000000000000000     
   8.0397316062612634E-002  -1.1565786165540243E-002   0.0000000000000000     
   0.0000000000000000        0.0000000000000000        0.0000000000000000     
   4.6296282234391396E-002  -9.8413657985040089E-003   0.0000000000000000     
   7.4338432058749210E-002  -8.2484001398673654E-003   0.0000000000000000     
   8.5503755393397302E-002  -5.7353145606841007E-003   0.0000000000000000     
   8.1169558158659477E-002  -1.2816320597548263E-002   0.0000000000000000     
   0.0000000000000000        0.0000000000000000        0.0000000000000000     
   4.6605621464401864E-002  -1.0692521102208741E-002   0.0000000000000000     
   7.4192026427327293E-002  -8.3536883644351450E-003   0.0000000000000000     
   8.5190852671124653E-002  -5.3370381804973728E-003   0.0000000000000000     
   8.2033737978142215E-002  -1.3996106944213578E-002   0.0000000000000000     
   0.0000000000000000        0.0000000000000000        0.0000000000000000     
   4.6653339088999247E-002  -1.1585873413157258E-002   0.0000000000000000     
   7.4060369378001353E-002  -8.5002873211700181E-003   0.0000000000000000     
   8.5143849616318129E-002  -4.9374280327892711E-003   0.0000000000000000     
   8.2826538553261400E-002  -1.5091481856766013E-002   0.0000000000000000     
   0.0000000000000000        0.0000000000000000        0.0000000000000000     
   4.6653339088999247E-002  -1.1585873413157258E-002   0.0000000000000000     
   7.4060369378001353E-002  -8.5002873211700181E-003   0.0000000000000000     
   8.5143849616318129E-002  -4.9374280327892711E-003   0.0000000000000000     
   8.2826538553261400E-002  -1.5091481856766013E-002   0.0000000000000000     
   0.0000000000000000        0.0000000000000000        0.0000000000000000     
   4.6265831513636106E-002  -1.2529426112435805E-002   0.0000000000000000     
   7.3943503702885452E-002  -8.6928721947957029E-003   0.0000000000000000     
   8.5515314308356516E-002  -4.5366051144324288E-003   0.0000000000000000     
   8.3463561070657680E-002  -1.6106891738698711E-002   0.0000000000000000     
   0.0000000000000000        0.0000000000000000        0.0000000000000000     
   4.5560010522819119E-002  -1.3526140174619991E-002   0.0000000000000000     
   7.3820572956973876E-002  -8.9205240028956776E-003   0.0000000000000000     
   8.6214868746324808E-002  -4.1344513303630415E-003   0.0000000000000000     
   8.4176079334732520E-002  -1.7119222002558082E-002   0.0000000000000000     
   0.0000000000000000        0.0000000000000000        0.0000000000000000     
   4.4725416745818501E-002  -1.4577715972657796E-002   0.0000000000000000     
   7.3665495885980939E-002  -9.1684252212683431E-003   0.0000000000000000     
   8.7091398409234799E-002  -3.7307888125331827E-003   0.0000000000000000     
   8.5274285304327485E-002  -1.8223467813153846E-002   0.0000000000000000     
   0.0000000000000000        0.0000000000000000        0.0000000000000000     
   4.3951590811904452E-002  -1.5685853879497180E-002   0.0000000000000000     
   7.3452191235620953E-002  -9.4217583257121158E-003   0.0000000000000000     
   8.7993788776098023E-002  -3.3254396928949284E-003   0.0000000000000000     
   8.7068370938284137E-002  -1.9514624335295720E-002   0.0000000000000000     
   0.0000000000000000        0.0000000000000000        0.0000000000000000     
   4.3951590811904452E-002  -1.5685853879497180E-002   0.0000000000000000     
   7.3452191235620953E-002  -9.4217583257121158E-003   0.0000000000000000     
   8.7993788776098023E-002  -3.3254396928949284E-003   0.0000000000000000     
   8.7068370938284137E-002  -1.9514624335295720E-002   0.0000000000000000     
   0.0000000000000000        0.0000000000000000        0.0000000000000000     
   4.3351920239283644E-002  -1.6834519385164781E-002   0.0000000000000000     
   7.3163731686669467E-002  -9.6726837810128270E-003   0.0000000000000000     
   8.8820093847373979E-002  -2.9303657553807262E-003   0.0000000000000000     
   8.9705666226613606E-002  -2.1023437876105038E-002   0.0000000000000000     
   0.0000000000000000        0.0000000000000000        0.0000000000000000     
   4.2735180101908618E-002  -1.7936738448001883E-002   0.0000000000000000     
   7.2819805660147063E-002  -9.9412740079059918E-003   0.0000000000000000     
   8.9665041709313317E-002  -2.6060873918444887E-003   0.0000000000000000     
   9.2682053284005361E-002  -2.2523659311949530E-002   0.0000000000000000     
   0.0000000000000000        0.0000000000000000        0.0000000000000000     
   4.1833992362668465E-002  -1.8887802143428483E-002   0.0000000000000000     
   7.2449255512135630E-002  -1.0254579416114561E-002   0.0000000000000000     
   9.0672528969614530E-002  -2.4252646461204912E-003   0.0000000000000000     
   9.5330552256318341E-002  -2.3724790661508528E-002   0.0000000000000000     
   0.0000000000000000        0.0000000000000000        0.0000000000000000     
   4.0380978984452205E-002  -1.9583001546864529E-002   0.0000000000000000     
   7.2080923598716956E-002  -1.0639650415361471E-002   0.0000000000000000     
   9.1986452235976124E-002  -2.4605575620430271E-003   0.0000000000000000     
   9.6984183289411552E-002  -2.4336333943461380E-002   0.0000000000000000     
 </DataArray>
 </PointData>
 </Piece>
 <Piece  NumberOfPoints="           200 "  NumberOfCells="          128 ">
 <Points>
 <DataArray  type="Float64" NumberOfComponents="3"  format="ascii" >
   0.0000000000000000        0.0000000000000000        0.0000000000000000     
   2.5000000000000000        0.0000000000000000        0.0000000000000000     
   5.0000000000000000        0.0000000000000000        0.0000000000000000     
   7.5000000000000000        0.0000000000000000        0.0000000000000000     
   10.000000000000000        0.0000000000000000        0.0000000000000000     
   0.0000000000000000       0.15625000000000000        0.0000000000000000     
   2.5000000000000000       0.15625000000000000        0.0000000000000000     
   5.0000000000000000       0.15624999999999997        0.0000000000000000     
   7.5000000000000000       0.15625000000000003        0.0000000000000000     
   10.000000000000000       0.15625000000000000        0.0000000000000000     
   0.0000000000000000       0.31250000000000006        0.0000000000000000     
   2.5000000000000000       0.31250000000000000        0.0000000000000000     
   5.0000000000000000       0.31250000000000006        0.0000000000000000     
   7.4999999999999982       0.31249999999999994        0.0000000000000000     
   10.000000000000000       0.31250000000000006        0.0000000000000000     
   0.0000000000000000       0.46875000000000000        0.0000000000000000     
   2.5000000000000000       0.46875000000000000        0.0000000000000000     
   5.0000000000000000       0.46875000000000000        0.0000000000000000     
   7.5000000000000000       0.46875000000000000        0.0000000000000000     
   10.000000000000000       0.46875000000000000        0.0000000000000000     
   0.0000000000000000       0.62500000000000011        0.0000000000000000     
   2.5000000000000000       0.62500000000000000        0.0000000000000000     
   5.0000000000000009       0.62500000000000000        0.0000000000000000     
   7.4999999999999991       0.62500000000000000        0.0000000000000000     
   10.000000000000000       0.62500000000000011        0.0000000000000000     
   0.0000000000000000       0.62500000000000011        0.0000000000000000     
   2.5000000000000000       0.62500000000000000        0.0000000000000000     
   5.0000000000000009       0.62500000000000000        0.0000000000000000     
   7.4999999999999991       0.62500000000000000        0.0000000000000000     
   10.000000000000000       0.62500000000000011        0.0000000000000000     
   0.0000000000000000       0.78124999999999989        0.0000000000000000     
   2.5000000000000000       0.78125000000000011        0.0000000000000000     
   5.0000000000000009       0.78125000000000011        0.0000000000000000     
   7.5000000000000000       0.78125000000000000        0.0000000000000000     
   9.9999999999999982       0.78124999999999989        0.0000000000000000     
   0.0000000000000000       0.93749999999999989        0.0000000000000000     
   2.5000000000000000       0.93749999999999989        0.0000000000000000     
   5.0000000000000000       0.93750000000000000        0.0000000000000000     
   7.4999999999999991       0.93749999999999989        0.0000000000000000     
   10.000000000000000       0.93749999999999989        0.0000000000000000     
   0.0000000000000000        1.0937499999999998        0.0000000000000000     
   2.5000000000000000        1.0937500000000000        0.0000000000000000     
   5.0000000000000009        1.0937500000000004        0.0000000000000000     
   7.5000000000000000        1.0937500000000000        0.0000000000000000     
   10.000000000000000        1.0937499999999998        0.0000000000000000     
   0.0000000000000000        1.2500000000000002        0.0000000000000000     
   2.4999999999999996        1.2500000000000000        0.0000000000000000     
   4.9999999999999991        1.2499999999999998        0.0000000000000000     
   7.5000000000000009        1.2500000000000002        0.0000000000000000     