 <VTKFile type="UnstructuredGrid"  version="0.1"   >
 <UnstructuredGrid>
 <Piece  NumberOfPoints="           200 "  NumberOfCells="          128 ">
 <Points>
 <DataArray  type="Float64" NumberOfComponents="3"  format="ascii" >
  -10.000000000000000        0.0000000000000000        0.0000000000000000     
  -7.5000000000000000        0.0000000000000000        0.0000000000000000     
  -5.0000000000000000        0.0000000000000000        0.0000000000000000     
  -2.4999999999999996        0.0000000000000000        0.0000000000000000     
   0.0000000000000000        0.0000000000000000        0.0000000000000000     
  -10.000000000000000       0.15625000000000000        0.0000000000000000     
  -7.5000000000000000       0.15625000000000000        0.0000000000000000     
  -5.0000000000000000       0.15624999999999997        0.0000000000000000     
  -2.5000000000000000       0.15625000000000003        0.0000000000000000     
   0.0000000000000000       0.15625000000000000        0.0000000000000000     
  -10.000000000000000       0.31250000000000006        0.0000000000000000     
  -7.5000000000000000       0.31250000000000000        0.0000000000000000     
  -5.0000000000000000       0.31250000000000006        0.0000000000000000     
  -2.4999999999999996       0.31249999999999994        0.0000000000000000     
   0.0000000000000000       0.31250000000000006        0.0000000000000000     
  -10.000000000000000       0.46875000000000000        0.0000000000000000     
  -7.5000000000000000       0.46875000000000000        0.0000000000000000     
  -5.0000000000000000       0.46875000000000000        0.0000000000000000     
  -2.4999999999999996       0.46875000000000000        0.0000000000000000     
   0.0000000000000000       0.46875000000000000        0.0000000000000000     
  -10.000000000000000       0.62500000000000011        0.0000000000000000     
  -7.5000000000000000       0.62500000000000000        0.0000000000000000     
  -5.0000000000000009       0.62500000000000000        0.0000000000000000     
  -2.4999999999999996       0.62500000000000000        0.0000000000000000     
   0.0000000000000000       0.62500000000000011        0.0000000000000000     
  -10.000000000000000       0.62500000000000011        0.0000000000000000     
  -7.5000000000000000       0.62500000000000000        0.0000000000000000     
  -5.0000000000000009       0.62500000000000000        0.0000000000000000     
  -2.4999999999999996       0.62500000000000000        0.0000000000000000     
   0.0000000000000000       0.62500000000000011        0.0000000000000000     
  -9.9999999999999982       0.78124999999999989        0.0000000000000000     
  -7.5000000000000000       0.78125000000000011        0.0000000000000000     
  -5.0000000000000009       0.78125000000000011        0.0000000000000000     
  -2.4999999999999996       0.78125000000000000        0.0000000000000000     
   0.0000000000000000       0.78124999999999989        0.0000000000000000     
  -10.000000000000000       0.93749999999999989        0.0000000000000000     
  -7.4999999999999991       0.93749999999999989        0.0000000000000000     
  -5.0000000000000000       0.93750000000000000        0.0000000000000000     
  -2.5000000000000000       0.93749999999999989        0.0000000000000000     
   0.0000000000000000       0.93749999999999989        0.0000000000000000     
  -10.000000000000000        1.0937499999999998        0.0000000000000000     
  -7.5000000000000000        1.0937500000000000        0.0000000000000000     
  -5.0000000000000009        1.0937500000000004        0.0000000000000000     
  -2.5000000000000000        1.0937500000000000        0.0000000000000000     
   0.0000000000000000        1.0937499999999998        0.0000000000000000     
  -10.000000000000004        1.2500000000000002        0.0000000000000000     
  -7.5000000000000000        1.2500000000000000        0.0000000000000000     
  -4.9999999999999991        1.2499999999999998        0.0000000000000000     
  -2.5000000000000000        1.2500000000000002        0.0000000000000000     
   0.0000000000000000        1.2500000000000002        0.0000000000000000     
  -10.000000000000004        1.2500000000000002        0.0000000000000000     
  -7.5000000000000000        1.2500000000000000        0.0000000000000000     
  -4.9999999999999991        1.2499999999999998        0.0000000000000000     
  -2.5000000000000000        1.2500000000000002        0.0000000000000000     
   0.0000000000000000        1.2500000000000002        0.0000000000000000     
  -9.9999999999999982        1.4062499999999998        0.0000000000000000     
  -7.4999999999999991        1.4062500000000000        0.0000000000000000     
  -5.0000000000000009        1.4062500000000002        0.0000000000000000     
  -2.5000000000000000        1.4062500000000000        0.0000000000000000     
   0.0000000000000000        1.4062499999999998        0.0000000000000000     
  -10.000000000000002        1.5625000000000002        0.0000000000000000     
  -7.4999999999999982        1.5624999999999998        0.0000000000000000     
  -5.0000000000000009        1.5625000000000004        0.0000000000000000     
  -2.5000000000000004        1.5625000000000000        0.0000000000000000     
   0.0000000000000000        1.5625000000000002        0.0000000000000000     
  -10.000000000000002        1.7187500000000002        0.0000000000000000     
  -7.5000000000000000        1.7187500000000000        0.0000000000000000     
  -4.9999999999999982        1.7187500000000000        0.0000000000000000     
  -2.4999999999999996        1.7187500000000002        0.0000000000000000     
   0.0000000000000000        1.7187500000000002        0.0000000000000000     
  -10.000000000000004        1.8750000000000004        0.0000000000000000     
  -7.5000000000000000        1.8750000000000000        0.0000000000000000     
  -4.9999999999999991        1.8750000000000000        0.0000000000000000     
  -2.5000000000000000        1.8750000000000002        0.0000000000000000     
   0.0000000000000000        1.8750000000000004        0.0000000000000000     
  -10.000000000000004        1.8750000000000004        0.0000000000000000     
  -7.5000000000000000        1.8750000000000000        0.0000000000000000     
  -4.9999999999999991        1.8750000000000000        0.0000000000000000     
  -2.5000000000000000        1.8750000000000002        0.0000000000000000     
   0.0000000000000000        1.8750000000000004        0.0000000000000000     
  -9.9999999999999982        2.0312500000000000        0.0000000000000000     
  -7.4999999999999991        2.0312500000000000        0.0000000000000000     
  -5.0000000000000009        2.0312500000000004        0.0000000000000000     
  -2.5000000000000000        2.0312500000000000        0.0000000000000000     
   0.0000000000000000        2.0312500000000000        0.0000000000000000     
  -10.000000000000002        2.1875000000000004        0.0000000000000000     
  -7.4999999999999982        2.1874999999999996        0.0000000000000000     
  -5.0000000000000009        2.1875000000000004        0.0000000000000000     
  -2.5000000000000004        2.1875000000000004        0.0000000000000000     
   0.0000000000000000        2.1875000000000004        0.0000000000000000     
  -10.000000000000002        2.3437500000000004        0.0000000000000000     
  -7.5000000000000000        2.3437500000000000        0.0000000000000000     
  -4.9999999999999982        2.3437499999999996        0.0000000000000000     
  -2.4999999999999996        2.3437500000000004        0.0000000000000000     
   0.0000000000000000        2.3437500000000004        0.0000000000000000     
  -10.000000000000004        2.5000000000000004        0.0000000000000000     
  -7.5000000000000000        2.5000000000000000        0.0000000000000000     
  -4.9999999999999991        2.5000000000000000        0.0000000000000000     
  -2.5000000000000000        2.5000000000000000        0.0000000000000000     
   0.0000000000000000        2.5000000000000004        0.0000000000000000     
  -10.000000000000004        2.5000000000000004        0.0000000000000000     
  -7.5000000000000000        2.5000000000000000        0.0000000000000000     
  -4.9999999999999991        2.5000000000000000        0.0000000000000000     
  -2.5000000000000000        2.5000000000000000        0.0000000000000000     
   0.0000000000000000        2.5000000000000004        0.0000000000000000     
  -9.9999999999999982        2.6562500000000000        0.0000000000000000     
  -7.4999999999999991        2.6562500000000000        0.0000000000000000     
  -5.0000000000000009        2.6562500000000004        0.0000000000000000     
  -2.5000000000000000        2.6562500000000000        0.0000000000000000     
   0.0000000000000000        2.6562500000000000        0.0000000000000000     
  -10.000000000000002        2.8125000000000004        0.0000000000000000     
  -7.4999999999999982        2.8124999999999996        0.0000000000000000     
  -5.0000000000000009        2.8125000000000004        0.0000000000000000     
  -2.5000000000000004        2.8125000000000000        0.0000000000000000     
   0.0000000000000000        2.8125000000000004        0.0000000000000000     
  -10.000000000000002        2.9687500000000000        0.0000000000000000     
  -7.5000000000000000        2.9687499999999996        0.0000000000000000     
  -4.9999999999999982        2.9687500000000000        0.0000000000000000     
  -2.4999999999999996        2.9687500000000004        0.0000000000000000     
   0.0000000000000000        2.9687500000000000        0.0000000000000000     
  -10.000000000000004        3.1250000000000000        0.0000000000000000     
  -7.5000000000000000        3.1250000000000000        0.0000000000000000     
  -4.9999999999999991        3.1250000000000000        0.0000000000000000     
[...]
 <PointData>
 <DataArray  type="Float64" Name="disp" NumberOfComponents="3" format="ascii">
   0.0000000000000000        0.0000000000000000        0.0000000000000000     
   2.0041164446735690E-002   2.2832112085135137E-002   0.0000000000000000     
   3.8064993742775118E-002   6.1637612788114519E-002   0.0000000000000000     
   4.8329745434810840E-002  0.10736165149093528        0.0000000000000000     
   4.5093677069535404E-002  0.15094937757559454        0.0000000000000000     
   0.0000000000000000        0.0000000000000000        0.0000000000000000     
   1.8334789175189575E-002   2.2442671100355350E-002   0.0000000000000000     
   3.5258438807256126E-002   6.0622509119924589E-002   0.0000000000000000     
   4.5187494166265274E-002  0.10688516219011211        0.0000000000000000     
   4.2538500522282571E-002  0.15357627844232219        0.0000000000000000     
   0.0000000000000000        0.0000000000000000        0.0000000000000000     
   1.6930661073766465E-002   2.2283476227259336E-002   0.0000000000000000     
   3.2489475610622688E-002   6.0004615183613150E-002   0.0000000000000000     
   4.1815854748097944E-002  0.10638414123078109        0.0000000000000000     
   4.0049209623721549E-002  0.15464277873048288        0.0000000000000000     
   0.0000000000000000        0.0000000000000000        0.0000000000000000     
   1.5718640005590371E-002   2.2410490389776657E-002   0.0000000000000000     
   2.9774788276820167E-002   5.9689647535439622E-002   0.0000000000000000     
   3.8332756884532700E-002  0.10583582920918265        0.0000000000000000     
   3.7556857899571292E-002  0.15484739318319948        0.0000000000000000     
   0.0000000000000000        0.0000000000000000        0.0000000000000000     
   1.4588585833785306E-002   2.2879676511836877E-002   0.0000000000000000     
   2.7131060929793963E-002   5.9583322731663488E-002   0.0000000000000000     
   3.4856130279793333E-002  0.10521746672155709        0.0000000000000000     
   3.4992498875550795E-002  0.15488863654359503        0.0000000000000000     
   0.0000000000000000        0.0000000000000000        0.0000000000000000     
   1.4588585833785306E-002   2.2879676511836877E-002   0.0000000000000000     
   2.7131060929793963E-002   5.9583322731663488E-002   0.0000000000000000     
   3.4856130279793333E-002  0.10521746672155709        0.0000000000000000     
   3.4992498875550795E-002  0.15488863654359503        0.0000000000000000     
   0.0000000000000000        0.0000000000000000        0.0000000000000000     
   1.3452861777287833E-002   2.3704046706946938E-002   0.0000000000000000     
   2.4569585030546258E-002   5.9594929126890392E-002   0.0000000000000000     
   3.1476781629268237E-002  0.10451992851528871        0.0000000000000000     
   3.2301063442946754E-002  0.15532632612760022        0.0000000000000000     
   0.0000000000000000        0.0000000000000000        0.0000000000000000     
   1.2313844478284630E-002   2.4724809846923285E-002   0.0000000000000000     
   2.2080081388306437E-002   5.9648042269111134E-002   0.0000000000000000     
   2.8177025593004196E-002  0.10378862594233783        0.0000000000000000     
   2.9482991955316708E-002  0.15616548954237763        0.0000000000000000     
   0.0000000000000000        0.0000000000000000        0.0000000000000000     
   1.1196413934774918E-002   2.5740223993159766E-002   0.0000000000000000     
   1.9646878149360690E-002   5.9669809504662788E-002   0.0000000000000000     
   2.4912053822212590E-002  0.10308260450580878        0.0000000000000000     
   2.6552602131785910E-002  0.15727245696789757        0.0000000000000000     
   0.0000000000000000        0.0000000000000000        0.0000000000000000     
   1.0125450144757912E-002   2.6548547207050209E-002   0.0000000000000000     
   1.7254303459995183E-002   5.9587378179882342E-002   0.0000000000000000     
   2.1637057968104771E-002  0.10246090970880592        0.0000000000000000     
   2.3524211691479620E-002  0.15851355858413041        0.0000000000000000     
   0.0000000000000000        0.0000000000000000        0.0000000000000000     
   1.0125450144757912E-002   2.6548547207050209E-002   0.0000000000000000     
   1.7254303459995183E-002   5.9587378179882342E-002   0.0000000000000000     
   2.1637057968104771E-002  0.10246090970880592        0.0000000000000000     
   2.3524211691479620E-002  0.15851355858413041        0.0000000000000000     
   0.0000000000000000        0.0000000000000000        0.0000000000000000     
   9.1107740238409694E-003   2.7002572543002718E-002   0.0000000000000000     
   1.4886510325485078E-002   5.9353419346922981E-002   0.0000000000000000     
   1.8321892708642526E-002  0.10196827762370970        0.0000000000000000     
   2.0411604977023514E-002  0.15976288458531185        0.0000000000000000     
   0.0000000000000000        0.0000000000000000        0.0000000000000000     
   8.1019701580639890E-003   2.7173233027482497E-002   0.0000000000000000     
   1.2526951187061307E-002   5.9022698881202228E-002   0.0000000000000000     
   1.4995064828789238E-002  0.10159220660000566        0.0000000000000000     
   1.7226432825045067E-002  0.16092556522273926        0.0000000000000000     
   0.0000000000000000        0.0000000000000000        0.0000000000000000     
   7.0335640510750044E-003   2.7185996679969016E-002   0.0000000000000000     
   1.0158903344943784E-002   5.8675506363953724E-002   0.0000000000000000     
   1.1699744140258711E-002  0.10130588555645537        0.0000000000000000     
   1.3979812695672163E-002  0.16191449076197525        0.0000000000000000     
   0.0000000000000000        0.0000000000000000        0.0000000000000000     
   5.8400812065220516E-003   2.7166331519941720E-002   0.0000000000000000     
   7.7656440993524164E-003   5.8392131376411111E-002   0.0000000000000000     
   8.4791004547647500E-003  0.10108250341182058        0.0000000000000000     
   1.0682862049032705E-002  0.16264255146858253        0.0000000000000000     
   0.0000000000000000        0.0000000000000000        0.0000000000000000     
   5.8400812065220516E-003   2.7166331519941720E-002   0.0000000000000000     
   7.7656440993524164E-003   5.8392131376411111E-002   0.0000000000000000     
   8.4791004547647500E-003  0.10108250341182058        0.0000000000000000     
   1.0682862049032705E-002  0.16264255146858253        0.0000000000000000     
   0.0000000000000000        0.0000000000000000        0.0000000000000000     
   4.4835690737779002E-003   2.7219097655533896E-002   0.0000000000000000     
   5.3359502853848268E-003   5.8237363405986828E-002   0.0000000000000000     
   5.3576618797005196E-003  0.10089892853949466        0.0000000000000000     
   7.3492221016047193E-003  0.16304792434419324        0.0000000000000000     
   0.0000000000000000        0.0000000000000000        0.0000000000000000     
   3.0361628851142668E-003   2.7366723549494060E-002   0.0000000000000000     
   2.8805968776495130E-003   5.8213991564808318E-002   0.0000000000000000     
   2.2853897051766958E-003  0.10074674713139779        0.0000000000000000     
   4.0026290952667794E-003  0.16316993333471758        0.0000000000000000     
   0.0000000000000000        0.0000000000000000        0.0000000000000000     
   1.5975198185276085E-003   2.7611029753224520E-002   0.0000000000000000     
   4.1585838563269664E-004   5.8309304871181848E-002   0.0000000000000000     
  -8.0639648301666868E-004  0.10062122483408205        0.0000000000000000     
   6.6934302824758329E-004  0.16307318912213509        0.0000000000000000     
   0.0000000000000000        0.0000000000000000        0.0000000000000000     
   2.6729705201437707E-004   2.7953836818127610E-002   0.0000000000000000     
  -2.0419906811794024E-003   5.8510592343413687E-002   0.0000000000000000     
  -3.9863770990895232E-003  0.10051762729409930        0.0000000000000000     
  -2.6243761012241635E-003  0.16282230238842552        0.0000000000000000     
   0.0000000000000000        0.0000000000000000        0.0000000000000000     
   2.6729705201437707E-004   2.7953836818127610E-002   0.0000000000000000     
  -2.0419906811794024E-003   5.8510592343413687E-002   0.0000000000000000     
  -3.9863770990895232E-003  0.10051762729409930        0.0000000000000000     
  -2.6243761012241635E-003  0.16282230238842552        0.0000000000000000     
   0.0000000000000000        0.0000000000000000        0.0000000000000000     
  -8.9113294027939145E-004   2.8388384106696307E-002   0.0000000000000000     
  -4.4806724107490110E-003   5.8800405991730989E-002   0.0000000000000000     
  -7.2958198333095805E-003  0.10043325538987269        0.0000000000000000     
  -5.8637766298618287E-003  0.16248412203589008        0.0000000000000000     
   0.0000000000000000        0.0000000000000000        0.0000000000000000     
  -1.9595364996093448E-003   2.8873586225786209E-002   0.0000000000000000     
  -6.9038952808321173E-003   5.9142349794044355E-002   0.0000000000000000     
  -1.0666341480175597E-002  0.10037355092730950        0.0000000000000000     
  -9.0801402341470650E-003  0.16213444984811676        0.0000000000000000     
   0.0000000000000000        0.0000000000000000        0.0000000000000000     
  -3.0559646710815423E-003   2.9359776593343576E-002   0.0000000000000000     
  -9.3193643666331615E-003   5.9495290720185307E-002   0.0000000000000000     
  -1.4002146110244100E-002  0.10034599094418815        0.0000000000000000     
  -1.2316256925503586E-002  0.16185132582901501        0.0000000000000000     
   0.0000000000000000        0.0000000000000000        0.0000000000000000     
  -4.2984684998020510E-003   2.9797288627314678E-002   0.0000000000000000     
  -1.1734784743356579E-002   5.9818095739985408E-002   0.0000000000000000     
  -1.7207437794071596E-002  0.10035805247828705        0.0000000000000000     
  -1.5614916715355106E-002  0.16171278998249441        0.0000000000000000     
   0.0000000000000000        0.0000000000000000        0.0000000000000000     
  -4.2984684998020510E-003   2.9797288627314678E-002   0.0000000000000000     
  -1.1734784743356579E-002   5.9818095739985408E-002   0.0000000000000000     
  -1.7207437794071596E-002  0.10035805247828705        0.0000000000000000     
  -1.5614916715355106E-002  0.16171278998249441        0.0000000000000000     
   0.0000000000000000        0.0000000000000000        0.0000000000000000     
  -5.7691480288946080E-003   3.0145889119932091E-002   0.0000000000000000     
  -1.4157275946603326E-002   6.0079196881231381E-002   0.0000000000000000     
  -2.0217418883353027E-002  0.10041558920053528        0.0000000000000000     
  -1.9002611969370614E-002  0.16177073199448111        0.0000000000000000     
   0.0000000000000000        0.0000000000000000        0.0000000000000000     
  -7.4062992935536578E-003   3.0403078360573731E-002   0.0000000000000000     
  -1.6591615353560390E-002   6.0285286403530827E-002   0.0000000000000000     
  -2.3091284854336969E-002  0.10051796131446444        0.0000000000000000     
  -2.2440644470200170E-002  0.16197244027896768        0.0000000000000000     
   0.0000000000000000        0.0000000000000000        0.0000000000000000     
  -9.1122673269913093E-003   3.0575790012903854E-002   0.0000000000000000     
  -1.9041994801811297E-002   6.0452621624446611E-002   0.0000000000000000     
  -2.5919229464410418E-002  0.10066290565675685        0.0000000000000000     
  -2.5874018354739091E-002  0.16223905293196314        0.0000000000000000     
   0.0000000000000000        0.0000000000000000        0.0000000000000000     
  -1.0789397162419683E-002   3.0670957740586709E-002   0.0000000000000000     
  -2.1512606128939571E-002   6.0597459861541567E-002   0.0000000000000000     
  -2.8791446470960345E-002  0.10084815906409483        0.0000000000000000     
  -2.9247737759882694E-002  0.16249170804947671        0.0000000000000000     
   0.0000000000000000        0.0000000000000000        0.0000000000000000     
  -1.0789397162419683E-002   3.0670957740586709E-002   0.0000000000000000     
  -2.1512606128939571E-002   6.0597459861541567E-002   0.0000000000000000     
  -2.8791446470960345E-002  0.10084815906409483        0.0000000000000000     
  -2.9247737759882694E-002  0.16249170804947671        0.0000000000000000     
   0.0000000000000000        0.0000000000000000        0.0000000000000000     
  -1.2364762302459430E-002   3.0701082555835632E-002   0.0000000000000000     
  -2.4004741010816521E-002   6.0736411996789766E-002   0.0000000000000000     
  -3.1778993322194658E-002  0.10106988648458692        0.0000000000000000     
  -3.2546576433717202E-002  0.16266540418095149        0.0000000000000000     
   0.0000000000000000        0.0000000000000000        0.0000000000000000     
  -1.3864350127365350E-002   3.0700934865060356E-002   0.0000000000000000     
  -2.6508090476464703E-002   6.0887503169810238E-002   0.0000000000000000     
  -3.4876382229604833E-002  0.10131796531204670        0.0000000000000000     
  -3.5914386569092467E-002  0.16275058168956694        0.0000000000000000     
   0.0000000000000000        0.0000000000000000        0.0000000000000000     
  -1.5338876486800792E-002   3.0710852423219699E-002   0.0000000000000000     
  -2.9009445393194472E-002   6.1069112084633205E-002   0.0000000000000000     
  -3.8058989095503232E-002  0.10158070105171423        0.0000000000000000     
  -3.9534789970049215E-002  0.16275154139193640        0.0000000000000000     
   0.0000000000000000        0.0000000000000000        0.0000000000000000     
  -1.6839057230429090E-002   3.0771172985272505E-002   0.0000000000000000     
  -3.1495596628316191E-002   6.1299617445288918E-002   0.0000000000000000     
  -4.1302189822202247E-002  0.10184639920882921        0.0000000000000000     
  -4.3591408440628164E-002  0.16267258410467328        0.0000000000000000     
   0.0000000000000000        0.0000000000000000        0.0000000000000000     
  -1.6839057230429090E-002   3.0771172985272505E-002   0.0000000000000000     
  -3.1495596628316191E-002   6.1299617445288918E-002   0.0000000000000000     
  -4.1302189822202247E-002  0.10184639920882921        0.0000000000000000     
  -4.3591408440628164E-002  0.16267258410467328        0.0000000000000000     
   0.0000000000000000        0.0000000000000000        0.0000000000000000     
  -1.8378838329487657E-002   3.0915908135478697E-002   0.0000000000000000     
  -3.3957000474126135E-002   6.1591853847034049E-002   0.0000000000000000     
  -4.4596237529458758E-002  0.10210384847109137        0.0000000000000000     
  -4.8158300591028803E-002  0.16252790334407588        0.0000000000000000     
   0.0000000000000000        0.0000000000000000        0.0000000000000000     
  -1.9825086241510165E-002   3.1153764775302670E-002   0.0000000000000000     
  -3.6398774922864398E-002   6.1936479450030890E-002   0.0000000000000000     
  -4.7990894206807820E-002  0.10234377025603912        0.0000000000000000     
  -5.2871272256085504E-002  0.16237126342518191        0.0000000000000000     
   0.0000000000000000        0.0000000000000000        0.0000000000000000     
  -2.1007897545604372E-002   3.1487123635509963E-002   0.0000000000000000     
  -3.8829703391756974E-002   6.2318608305668127E-002   0.0000000000000000     
  -5.1550799061228926E-002  0.10255736916367068        0.0000000000000000     
  -5.7256566076791346E-002  0.16226632136271379        0.0000000000000000     
   0.0000000000000000        0.0000000000000000        0.0000000000000000     
  -2.1757368820878031E-002   3.1918365446866097E-002   0.0000000000000000     
  -4.1258569298029860E-002   6.2723354465334502E-002   0.0000000000000000     
  -5.5340591299701619E-002  0.10273584979398423        0.0000000000000000     
  -6.0840424694139458E-002  0.16227673417139424        0.0000000000000000     
 </DataArray>
 </PointData>
 </Piece>
 <Piece  NumberOfPoints="           200 "  NumberOfCells="          128 ">
 <Points>
 <DataArray  type="Float64" NumberOfComponents="3"  format="ascii" >
   0.0000000000000000        0.0000000000000000        0.0000000000000000     
   2.5000000000000000        0.0000000000000000        0.0000000000000000     
   5.0000000000000000        0.0000000000000000        0.0000000000000000     
   7.5000000000000000        0.0000000000000000        0.0000000000000000     
   10.000000000000000        0.0000000000000000        0.0000000000000000     
   0.0000000000000000       0.15625000000000000        0.0000000000000000     
   2.5000000000000000       0.15625000000000000        0.0000000000000000     
   5.0000000000000000       0.15624999999999997        0.0000000000000000     
   7.5000000000000000       0.15625000000000003        0.0000000000000000     
   10.000000000000000       0.15625000000000000        0.0000000000000000     
   0.0000000000000000       0.31250000000000006        0.0000000000000000     
   2.5000000000000000       0.31250000000000000        0.0000000000000000     
   5.0000000000000000       0.31250000000000006        0.0000000000000000     
   7.4999999999999982       0.31249999999999994        0.0000000000000000     
   10.000000000000000       0.31250000000000006        0.0000000000000000     
   0.0000000000000000       0.46875000000000000        0.0000000000000000     
   2.5000000000000000       0.46875000000000000        0.0000000000000000     
   5.0000000000000000       0.46875000000000000        0.0000000000000000     
   7.5000000000000000       0.46875000000000000        0.0000000000000000     
   10.000000000000000       0.46875000000000000        0.0000000000000000     
   0.0000000000000000       0.62500000000000011        0.0000000000000000     
   2.5000000000000000       0.62500000000000000        0.0000000000000000     
   5.0000000000000009       0.62500000000000000        0.0000000000000000     
   7.4999999999999991       0.62500000000000000        0.0000000000000000     
   10.000000000000000       0.62500000000000011        0.0000000000000000     
   0.0000000000000000       0.62500000000000011        0.0000000000000000     
   2.5000000000000000       0.62500000000000000        0.0000000000000000     
   5.0000000000000009       0.62500000000000000        0.0000000000000000     
   7.4999999999999991       0.62500000000000000        0.0000000000000000     
   10.000000000000000       0.62500000000000011        0.0000000000000000     
   0.0000000000000000       0.78124999999999989        0.0000000000000000     
   2.5000000000000000       0.78125000000000011        0.0000000000000000     
   5.0000000000000009       0.78125000000000011        0.0000000000000000     
   7.5000000000000000       0.78125000000000000        0.0000000000000000     
   9.9999999999999982       0.78124999999999989        0.0000000000000000     
   0.0000000000000000       0.93749999999999989        0.0000000000000000     
   2.5000000000000000       0.93749999999999989        0.0000000000000000     
   5.0000000000000000       0.93750000000000000        0.0000000000000000     
   7.4999999999999991       0.93749999999999989        0.0000000000000000     
   10.000000000000000       0.93749999999999989        0.0000000000000000     
   0.0000000000000000        1.0937499999999998        0.0000000000000000     
   2.5000000000000000        1.0937500000000000        0.0000000000000000     
   5.0000000000000009        1.0937500000000004        0.0000000000000000     
   7.5000000000000000        1.0937500000000000        0.0000000000000000     
   10.000000000000000        1.0937499999999998        0.0000000000000000     
   0.0000000000000000        1.2500000000000002        0.0000000000000000     
   2.4999999999999996        1.2500000000000000        0.0000000000000000     
   4.9999999999999991        1.2499999999999998        0.0000000000000000     
   7.5000000000000009        1.2500000000000002        0.0000000000000000     