 <VTKFile type="UnstructuredGrid"  version="0.1"   >
 <UnstructuredGrid>
 <Piece  NumberOfPoints="          5184 "  NumberOfCells="         4096 ">
 <Points>
 <DataArray  type="Float64" NumberOfComponents="3"  format="ascii" >
  -10.000000000000000        0.0000000000000000        0.0000000000000000     
  -9.9218750000000000        0.0000000000000000        0.0000000000000000     
  -9.8437500000000000        0.0000000000000000        0.0000000000000000     
  -9.7656250000000018        0.0000000000000000        0.0000000000000000     
  -9.6875000000000000        0.0000000000000000        0.0000000000000000     
  -9.6093750000000000        0.0000000000000000        0.0000000000000000     
  -9.5312500000000000        0.0000000000000000        0.0000000000000000     
  -9.4531250000000000        0.0000000000000000        0.0000000000000000     
  -9.3750000000000000        0.0000000000000000        0.0000000000000000     
  -10.000000000000000        7.8124999999999986E-002   0.0000000000000000     
  -9.9218750000000018        7.8125000000000014E-002   0.0000000000000000     
  -9.8437500000000000        7.8125000000000000E-002   0.0000000000000000     
  -9.7656250000000000        7.8125000000000000E-002   0.0000000000000000     
  -9.6875000000000000        7.8124999999999986E-002   0.0000000000000000     
  -9.6093750000000000        7.8125000000000000E-002   0.0000000000000000     
  -9.5312500000000000        7.8125000000000000E-002   0.0000000000000000     
  -9.4531250000000018        7.8124999999999986E-002   0.0000000000000000     
  -9.3750000000000018        7.8125000000000000E-002   0.0000000000000000     
  -10.000000000000000       0.15625000000000000        0.0000000000000000     
  -9.9218750000000000       0.15625000000000000        0.0000000000000000     
  -9.8437500000000000       0.15625000000000000        0.0000000000000000     
  -9.7656250000000000       0.15625000000000003        0.0000000000000000     
  -9.6875000000000000       0.15625000000000000        0.0000000000000000     
  -9.6093750000000000       0.15624999999999997        0.0000000000000000     
  -9.5312500000000018       0.15625000000000003        0.0000000000000000     
  -9.4531250000000000       0.15624999999999997        0.0000000000000000     
  -9.3750000000000000       0.15625000000000000        0.0000000000000000     
  -10.000000000000000       0.23437500000000000        0.0000000000000000     
  -9.9218750000000000       0.23437500000000000        0.0000000000000000     
  -9.8437499999999982       0.23437500000000000        0.0000000000000000     
  -9.7656250000000000       0.23437500000000000        0.0000000000000000     
  -9.6875000000000000       0.23437500000000000        0.0000000000000000     
  -9.6093750000000000       0.23437500000000000        0.0000000000000000     
  -9.5312500000000018       0.23437500000000000        0.0000000000000000     
  -9.4531250000000018       0.23437500000000000        0.0000000000000000     
  -9.3749999999999982       0.23437500000000000        0.0000000000000000     
  -10.000000000000000       0.31250000000000006        0.0000000000000000     
  -9.9218750000000000       0.31250000000000000        0.0000000000000000     
  -9.8437500000000000       0.31250000000000000        0.0000000000000000     
  -9.7656250000000000       0.31250000000000000        0.0000000000000000     
  -9.6875000000000000       0.31250000000000000        0.0000000000000000     
  -9.6093750000000000       0.31250000000000006        0.0000000000000000     
  -9.5312500000000000       0.31250000000000006        0.0000000000000000     
  -9.4531250000000000       0.31249999999999994        0.0000000000000000     
  -9.3750000000000018       0.31250000000000000        0.0000000000000000     
  -10.000000000000000       0.39062500000000006        0.0000000000000000     
  -9.9218750000000000       0.39062500000000000        0.0000000000000000     
  -9.8437499999999982       0.39062499999999994        0.0000000000000000     
  -9.7656250000000000       0.39062500000000000        0.0000000000000000     
  -9.6875000000000000       0.39062499999999994        0.0000000000000000     
  -9.6093750000000000       0.39062500000000000        0.0000000000000000     
  -9.5312500000000000       0.39062500000000000        0.0000000000000000     
  -9.4531249999999982       0.39062499999999994        0.0000000000000000     
  -9.3750000000000000       0.39062500000000006        0.0000000000000000     
  -10.000000000000000       0.46875000000000000        0.0000000000000000     
  -9.9218750000000000       0.46875000000000000        0.0000000000000000     
  -9.8437499999999982       0.46875000000000000        0.0000000000000000     
  -9.7656250000000000       0.46875000000000000        0.0000000000000000     
  -9.6875000000000000       0.46875000000000000        0.0000000000000000     
  -9.6093750000000000       0.46875000000000000        0.0000000000000000     
  -9.5312500000000000       0.46875000000000000        0.0000000000000000     
  -9.4531250000000000       0.46875000000000000        0.0000000000000000     
  -9.3750000000000000       0.46875000000000000        0.0000000000000000     
  -9.9999999999999982       0.54687499999999989        0.0000000000000000     
  -9.9218749999999982       0.54687499999999989        0.0000000000000000     
  -9.8437500000000000       0.54687500000000000        0.0000000000000000     
  -9.7656250000000000       0.54687500000000000        0.0000000000000000     
  -9.6875000000000000       0.54687500000000011        0.0000000000000000     
  -9.6093750000000000       0.54687499999999989        0.0000000000000000     
  -9.5312500000000000       0.54687500000000011        0.0000000000000000     
  -9.4531250000000000       0.54687500000000011        0.0000000000000000     
  -9.3750000000000018       0.54687500000000000        0.0000000000000000     
  -10.000000000000000       0.62500000000000011        0.0000000000000000     
  -9.9218750000000018       0.62500000000000000        0.0000000000000000     
  -9.8437500000000000       0.62500000000000000        0.0000000000000000     
  -9.7656250000000000       0.62500000000000011        0.0000000000000000     
  -9.6875000000000018       0.62499999999999989        0.0000000000000000     
  -9.6093750000000000       0.62500000000000011        0.0000000000000000     
  -9.5312500000000000       0.62500000000000011        0.0000000000000000     
  -9.4531250000000000       0.62499999999999989        0.0000000000000000     
  -9.3750000000000018       0.62500000000000022        0.0000000000000000     
  -9.3750000000000000        0.0000000000000000        0.0000000000000000     
  -9.2968750000000000        0.0000000000000000        0.0000000000000000     
  -9.2187500000000000        0.0000000000000000        0.0000000000000000     
  -9.1406250000000000        0.0000000000000000        0.0000000000000000     
  -9.0625000000000000        0.0000000000000000        0.0000000000000000     
  -8.9843750000000018        0.0000000000000000        0.0000000000000000     
  -8.9062499999999982        0.0000000000000000        0.0000000000000000     
  -8.8281250000000000        0.0000000000000000        0.0000000000000000     
  -8.7500000000000018        0.0000000000000000        0.0000000000000000     
  -9.3750000000000018        7.8125000000000000E-002   0.0000000000000000     
  -9.2968749999999982        7.8124999999999986E-002   0.0000000000000000     
  -9.2187500000000018        7.8125000000000000E-002   0.0000000000000000     
  -9.1406250000000018        7.8125000000000000E-002   0.0000000000000000     
  -9.0625000000000000        7.8124999999999986E-002   0.0000000000000000     
  -8.9843750000000000        7.8125000000000000E-002   0.0000000000000000     
  -8.9062500000000036        7.8125000000000014E-002   0.0000000000000000     
  -8.8281249999999982        7.8124999999999986E-002   0.0000000000000000     
  -8.7500000000000018        7.8125000000000000E-002   0.0000000000000000     
  -9.3750000000000000       0.15625000000000000        0.0000000000000000     
  -9.2968750000000018       0.15625000000000003        0.0000000000000000     
  -9.2187500000000000       0.15625000000000000        0.0000000000000000     
  -9.1406250000000018       0.15625000000000000        0.0000000000000000     
  -9.0625000000000018       0.15625000000000000        0.0000000000000000     
  -8.9843750000000000       0.15625000000000000        0.0000000000000000     
  -8.9062500000000018       0.15625000000000003        0.0000000000000000     
  -8.8281250000000018       0.15624999999999997        0.0000000000000000     
  -8.7500000000000000       0.15625000000000000        0.0000000000000000     
  -9.3749999999999982       0.23437500000000000        0.0000000000000000     
  -9.2968750000000000       0.23437500000000000        0.0000000000000000     
  -9.2187500000000000       0.23437500000000003        0.0000000000000000     
  -9.1406250000000000       0.23437500000000000        0.0000000000000000     
  -9.0625000000000018       0.23437500000000000        0.0000000000000000     
  -8.9843750000000018       0.23437500000000003        0.0000000000000000     
  -8.9062500000000000       0.23437500000000000        0.0000000000000000     
  -8.8281250000000000       0.23437500000000000        0.0000000000000000     
  -8.7500000000000018       0.23437500000000006        0.0000000000000000     
  -9.3750000000000018       0.31250000000000000        0.0000000000000000     
  -9.2968749999999982       0.31249999999999994        0.0000000000000000     
  -9.2187500000000000       0.31250000000000000        0.0000000000000000     
  -9.1406250000000000       0.31250000000000000        0.0000000000000000     
  -9.0625000000000000       0.31250000000000000        0.0000000000000000     
  -8.9843750000000000       0.31250000000000000        0.0000000000000000     
[...]
 <PointData>
 <DataArray  type="Float64" Name="disp" NumberOfComponents="3" format="ascii">
   0.0000000000000000        0.0000000000000000        0.0000000000000000     
   4.1252628375567672E-008   2.5199591770918232E-008   0.0000000000000000     
   7.9366768231504101E-008   4.7199587618079647E-008   0.0000000000000000     
   1.1479847946819002E-007   6.6536765137772983E-008   0.0000000000000000     
   1.4800382198600616E-007   8.3747901926286936E-008   0.0000000000000000     
   1.7943885568533319E-007   9.9369775579910228E-008   0.0000000000000000     
   2.0955964046655191E-007   1.1393916369493165E-007   0.0000000000000000     
   2.3882223623004295E-007   1.2799284386763984E-007   0.0000000000000000     
   2.6768270287618722E-007   1.4206759369432361E-007   0.0000000000000000     
   0.0000000000000000        0.0000000000000000        0.0000000000000000     
   3.5236961887910523E-008   2.0576604807798519E-008   0.0000000000000000     
   6.9110419767978091E-008   3.9460998594458665E-008   0.0000000000000000     
   1.0178237410969201E-007   5.6939030350397308E-008   0.0000000000000000     
   1.3341482538254150E-007   7.3296549066031290E-008   0.0000000000000000     
   1.6416977405601595E-007   8.8819403731777507E-008   0.0000000000000000     
   1.9420922059960453E-007   1.0379344333805281E-007   0.0000000000000000     
   2.2369516548279661E-007   1.1850451687527408E-007   0.0000000000000000     
   2.5278960917508143E-007   1.3323847333385816E-007   0.0000000000000000     
   0.0000000000000000        0.0000000000000000        0.0000000000000000     
   3.0601878583421933E-008   1.6814765206443128E-008   0.0000000000000000     
   6.1062674177395597E-008   3.3071213192837636E-008   0.0000000000000000     
   9.1347544661078794E-008   4.8873662995605613E-008   0.0000000000000000     
   1.2142164791362935E-007   6.4326433651169137E-008   0.0000000000000000     
   1.5125014181420509E-007   7.9533844195950305E-008   0.0000000000000000     
   1.8079818424196386E-007   9.4600213666371201E-008   0.0000000000000000     
   2.1003093307606346E-007   1.0962986109885388E-007   0.0000000000000000     
   2.3891354619566166E-007   1.2472710552982047E-007   0.0000000000000000     
   0.0000000000000000        0.0000000000000000        0.0000000000000000     
   2.7137851791265042E-008   1.3803629025715639E-008   0.0000000000000000     
   5.4893627346860917E-008   2.7863070697122338E-008   0.0000000000000000     
   8.3116735105966780E-008   4.2160040834363049E-008   0.0000000000000000     
   1.1165658350776187E-007   5.6676255257580723E-008   0.0000000000000000     
   1.4036258099142534E-007   7.1393429786918308E-008   0.0000000000000000     
   1.6908413599613636E-007   8.6293280242518742E-008   0.0000000000000000     
   1.9767065696107412E-007   1.0135752244452493E-007   0.0000000000000000     
   2.2597155232541785E-007   1.1656787221307994E-007   0.0000000000000000     
   0.0000000000000000        0.0000000000000000        0.0000000000000000     
   2.4635354840602970E-008   1.1432752324479629E-008   0.0000000000000000     
   5.0273375163478371E-008   2.3669410391218555E-008   0.0000000000000000     
   7.6712689427972440E-008   3.6617541627634784E-008   0.0000000000000000     
   1.0375192609343136E-007   5.0184713461146303E-008   0.0000000000000000     
   1.3118971361920138E-007   6.4278493319171163E-008   0.0000000000000000     
   1.5882468046462867E-007   7.8806448629127337E-008   0.0000000000000000     
   1.8645545508905945E-007   9.3676146818432851E-008   0.0000000000000000     
   2.1388066595184000E-007   1.0879515531450571E-007   0.0000000000000000     
   0.0000000000000000        0.0000000000000000        0.0000000000000000     
   2.2884861060598820E-008   9.5916911615986777E-009   0.0000000000000000     
   4.6872013514352266E-008   2.0323071559032033E-008   0.0000000000000000     
   7.1758151610712123E-008   3.2065543136385911E-008   0.0000000000000000     
   9.7339969599130045E-008   4.4690507837746129E-008   0.0000000000000000     
   1.2341416172905788E-007   5.8069367607198536E-008   0.0000000000000000     
   1.4977742224994725E-007   7.2073524388828947E-008   0.0000000000000000     
   1.7622644541125001E-007   8.6574380126723190E-008   0.0000000000000000     
   2.0255792546241786E-007   1.0144333676496713E-007   0.0000000000000000     
   0.0000000000000000        0.0000000000000000        0.0000000000000000     
   2.1676843780415724E-008   8.1700015959363613E-009   0.0000000000000000     
   4.4359638286586926E-008   1.7656893484468567E-008   0.0000000000000000     
   6.7875865637802235E-008   2.8323423121581611E-008   0.0000000000000000     
   9.2053007953350242E-008   4.0032337963260455E-008   0.0000000000000000     
   1.1671854735251955E-007   5.2646385465490087E-008   0.0000000000000000     
   1.4169996595459881E-007   6.6028313084255477E-008   0.0000000000000000     
   1.6682474587887658E-007   8.0040868275541597E-008   0.0000000000000000     
   1.9192036924464159E-007   9.4546798495333460E-008   0.0000000000000000     
   0.0000000000000000        0.0000000000000000        0.0000000000000000     
   2.0801776329216800E-008   7.0572396863562533E-009   0.0000000000000000     
   4.2406345367286651E-008   1.5503715451433925E-008   0.0000000000000000     
   6.4688575492859194E-008   2.5210559344187016E-008   0.0000000000000000     
   8.7523335084584121E-008   3.6048903413569534E-008   0.0000000000000000     
   1.1078549252111110E-007   4.7889879708535475E-008   0.0000000000000000     
   1.3434991618108976E-007   6.0604620278038860E-008   0.0000000000000000     
   1.5809147444316984E-007   7.4064257171033700E-008   0.0000000000000000     
   1.8188503568600093E-007   8.8139922436473936E-008   0.0000000000000000     
   0.0000000000000000        0.0000000000000000        0.0000000000000000     
   2.0050132036165177E-008   6.1429614917219372E-009   0.0000000000000000     
   4.0682230643555735E-008   1.3696376743833869E-008   0.0000000000000000     
   6.1819025159499418E-008   2.2546329565167264E-008   0.0000000000000000     
   8.3383244921323968E-008   3.2578903764553606E-008   0.0000000000000000     
   1.0529761926635719E-007   4.3680183150824368E-008   0.0000000000000000     
   1.2748487753192672E-007   5.5736251532811015E-008   0.0000000000000000     
   1.4986774905536042E-007   6.8633192719345032E-008   0.0000000000000000     
   1.7236896317398602E-007   8.2257090519257920E-008   0.0000000000000000     
   2.6768270287618722E-007   1.4206759369432361E-007   0.0000000000000000     
   2.9651813893412803E-007   1.5661440747248670E-007   0.0000000000000000     
   3.2538979744806003E-007   1.7174114630449355E-007   0.0000000000000000     
   3.5427997009094081E-007   1.8746988799392372E-007   0.0000000000000000     
   3.8317094853572728E-007   2.0382271034435645E-007   0.0000000000000000     
   4.1204502445537740E-007   2.2082169115937151E-007   0.0000000000000000     
   4.4088448952284802E-007   2.3848890824254812E-007   0.0000000000000000     
   4.6967163541109690E-007   2.5684643939746590E-007   0.0000000000000000     
   4.9838875379308132E-007   2.7591636242770440E-007   0.0000000000000000     
   2.5278960917508143E-007   1.3323847333385816E-007   0.0000000000000000     
   2.8163126082901537E-007   1.4824405981912251E-007   0.0000000000000000     
   3.1026566432942337E-007   1.6362161589598726E-007   0.0000000000000000     
   3.3871507224419734E-007   1.7943437924427296E-007   0.0000000000000000     
   3.6700173714122924E-007   1.9574558754380039E-007   0.0000000000000000     
   3.9514791158841111E-007   2.1261847847439009E-007   0.0000000000000000     
   4.2317584815363492E-007   2.3011628971586279E-007   0.0000000000000000     
   4.5110779940479242E-007   2.4830225894803904E-007   0.0000000000000000     
   4.7896601790977613E-007   2.6723962385073968E-007   0.0000000000000000     
   2.3891354619566166E-007   1.2472710552982047E-007   0.0000000000000000     
   2.6742423111680626E-007   1.3999319802613584E-007   0.0000000000000000     
   2.9559339390310403E-007   1.5551711777643577E-007   0.0000000000000000     
   3.2346449025505183E-007   1.7138477599979897E-007   0.0000000000000000     
   3.5108097587314664E-007   1.8768208391530402E-007   0.0000000000000000     
   3.7848630645788483E-007   2.0449495274202957E-007   0.0000000000000000     
   4.0572393770976358E-007   2.2190929369905421E-007   0.0000000000000000     
   4.3283732532927939E-007   2.4001101800545662E-007   0.0000000000000000     
   4.5986992501692927E-007   2.5888603688031544E-007   0.0000000000000000     
   2.2597155232541785E-007   1.1656787221307994E-007   0.0000000000000000     
   2.5386957634265069E-007   1.3192466488320375E-007   0.0000000000000000     
   2.8138086652347204E-007   1.4750271384942538E-007   0.0000000000000000     
   3.0855490619288513E-007   1.6339545202115085E-007   0.0000000000000000     
   3.3544117867589330E-007   1.7969631230778630E-007   0.0000000000000000     
   3.6208916729749987E-007   1.9649872761873767E-007   0.0000000000000000     
   3.8854835538270810E-007   2.1389613086341112E-007   0.0000000000000000     
   4.1486822625652147E-007   2.3198195495121272E-007   0.0000000000000000     
   4.4109826324394337E-007   2.5084963279154868E-007   0.0000000000000000     
   2.1388066595184000E-007   1.0879515531450571E-007   0.0000000000000000     
   2.4093982305169922E-007   1.2410130318000355E-007   0.0000000000000000     
   2.6763596254489751E-007   1.3965346601854243E-007   0.0000000000000000     
   2.9401300212707787E-007   1.5554078106897805E-007   0.0000000000000000     
   3.2011485949388360E-007   1.7185238557016608E-007   0.0000000000000000     
   3.4598545234095750E-007   1.8867741676096224E-007   0.0000000000000000     
   3.7166869836394299E-007   2.0610501188022220E-007   0.0000000000000000     
   3.9720851525848296E-007   2.2422430816680171E-007   0.0000000000000000     
   4.2264882072022068E-007   2.4312444285955637E-007   0.0000000000000000     
   2.0255792546241786E-007   1.0144333676496713E-007   0.0000000000000000     
   2.2860749778910186E-007   1.1658595570621230E-007   0.0000000000000000     
   2.5436656232175038E-007   1.3204443618737317E-007   0.0000000000000000     
   2.7986546012701092E-007   1.4789513690392977E-007   0.0000000000000000     
   3.0513453227153114E-007   1.6421441655136240E-007   0.0000000000000000     
   3.3020411982195912E-007   1.8107863382515112E-007   0.0000000000000000     
   3.5510456384494181E-007   1.9856414742077620E-007   0.0000000000000000     
   3.7986620540712742E-007   2.1674731603371756E-007   0.0000000000000000     
   4.0451938557516345E-007   2.3570449835945562E-007   0.0000000000000000     
   1.9192036924464159E-007   9.4546798495333460E-008   0.0000000000000000     
   2.1684512710000896E-007   1.0944146525150720E-007   0.0000000000000000     
   2.4158054620840054E-007   1.2475068625950379E-007   0.0000000000000000     
   2.6613896226206487E-007   1.4053289328665534E-007   0.0000000000000000     
   2.9053271095325043E-007   1.5684651810029410E-007   0.0000000000000000     
   3.1477412797420583E-007   1.7374999246775221E-007   0.0000000000000000     
   3.3887554901717913E-007   1.9130174815636161E-007   0.0000000000000000     
   3.6284930977441917E-007   2.0956021693345465E-007   0.0000000000000000     
   3.8670774593817435E-007   2.2858383056636349E-007   0.0000000000000000     
   1.8188503568600093E-007   8.8139922436473936E-008   0.0000000000000000     
   2.0562523752957072E-007   1.0273067460556540E-007   0.0000000000000000     
   2.2928579455921827E-007   1.1784727813852070E-007   0.0000000000000000     
   2.5286019060162077E-007   1.3352842397780412E-007   0.0000000000000000     
   2.7634190948345527E-007   1.4981280306588015E-007   0.0000000000000000     
   2.9972443503139891E-007   1.6673910634521305E-007   0.0000000000000000     
   3.2300125107212873E-007   1.8434602475826727E-007   0.0000000000000000     
   3.4616584143232179E-007   2.0267224924750711E-007   0.0000000000000000     
   3.6921168993865533E-007   2.2175647075539687E-007   0.0000000000000000     
   1.7236896317398602E-007   8.2257090519257920E-008   0.0000000000000000     
   1.9492035562293732E-007   9.6516426558064070E-008   0.0000000000000000     
   2.1749018772857339E-007   1.1140927372801009E-007   0.0000000000000000     
   2.4005582721505907E-007   1.2695610273802538E-007   0.0000000000000000     
   2.6259464180655957E-007   1.4317738429703940E-007   0.0000000000000000     
   2.8508399922723973E-007   1.6009358911398170E-007   0.0000000000000000     
   3.0750126720126473E-007   1.7772518789778176E-007   0.0000000000000000     
   3.2982381345279955E-007   1.9609265135736912E-007   0.0000000000000000     
   3.5202900570600921E-007   2.1521645020167312E-007   0.0000000000000000     
   4.9838875379308132E-007   2.7591636242770440E-007   0.0000000000000000     
   5.2702095983096495E-007   2.9571960757761639E-007   0.0000000000000000     
   5.5556466264373768E-007   3.1627251485464918E-007   0.0000000000000000     
   5.8401909483959585E-007   3.3759027670702321E-007   0.0000000000000000     
   6.1238348902673531E-007   3.5968808558295894E-007   0.0000000000000000     
   6.4065707781335228E-007   3.8258113393067688E-007   0.0000000000000000     
   6.6883909380764294E-007   4.0628461419839769E-007   0.0000000000000000     
   6.9692876961780361E-007   4.3081371883434182E-007   0.0000000000000000     
   7.2492533785203081E-007   4.5618364028672994E-007   0.0000000000000000     
   4.7896601790977613E-007   2.6723962385073968E-007   0.0000000000000000     
   5.0676768150377818E-007   2.8698119966910113E-007   0.0000000000000000     
   5.3450966909119395E-007   3.0753811190952327E-007   0.0000000000000000     
   5.6218378484371992E-007   3.2891106364372179E-007   0.0000000000000000     
   5.8978183293305158E-007   3.5110075794341233E-007   0.0000000000000000     
   6.1729561753088530E-007   3.7410789788031091E-007   0.0000000000000000     
   6.4471694280891709E-007   3.9793318652613301E-007   0.0000000000000000     
   6.7203761293884279E-007   4.2257732695259438E-007   0.0000000000000000     
   6.9924943209235854E-007   4.4804102223141087E-007   0.0000000000000000     
   4.5986992501692927E-007   2.5888603688031544E-007   0.0000000000000000     
   4.8685604978127012E-007   2.7860473019136510E-007   0.0000000000000000     
   5.1379344186309903E-007   2.9917535240096309E-007   0.0000000000000000     
   5.4067070081127374E-007   3.2059062662012313E-007   0.0000000000000000     
   5.6747642617465184E-007   3.4284327595985857E-007   0.0000000000000000     
   5.9419921750209072E-007   3.6592602353118285E-007   0.0000000000000000     
   6.2082767434244776E-007   3.8983159244510946E-007   0.0000000000000000     
   6.4735039624458075E-007   4.1455270581265181E-007   0.0000000000000000     
   6.7375598275734698E-007   4.4008208674482334E-007   0.0000000000000000     
   4.4109826324394337E-007   2.5084963279154868E-007   0.0000000000000000     
   4.6727782195872242E-007   2.7057535370073025E-007   0.0000000000000000     
   4.9340574716959124E-007   2.9116633262269094E-007   0.0000000000000000     
   5.1947075593402711E-007   3.1261254090826945E-007   0.0000000000000000     
   5.4546156530950830E-007   3.3490394990830455E-007   0.0000000000000000     
   5.7136689235351207E-007   3.5803053097363483E-007   0.0000000000000000     
   5.9717545412351676E-007   3.8198225545509911E-007   0.0000000000000000     
   6.2287596767699951E-007   4.0674909470353626E-007   0.0000000000000000     
   6.4845715007143898E-007   4.3232102006978492E-007   0.0000000000000000     
   4.2264882072022068E-007   2.4312444285955637E-007   0.0000000000000000     
   4.4802475533141747E-007   2.6287822475351876E-007   0.0000000000000000     
   4.7333635122080923E-007   2.8349314886842857E-007   0.0000000000000000     
   4.9857486340374964E-007   3.0496038178020242E-007   0.0000000000000000     
   5.2373154689559328E-007   3.2727109006475702E-007   0.0000000000000000     
   5.4879765671169361E-007   3.5041644029800868E-007   0.0000000000000000     
   5.7376444786740473E-007   3.7438759905587414E-007   0.0000000000000000     
   5.9862317537808139E-007   3.9917573291427030E-007   0.0000000000000000     
   6.2336509425907672E-007   4.2477200844911322E-007   0.0000000000000000     
   4.0451938557516345E-007   2.3570449835945562E-007   0.0000000000000000     
   4.2908860719463675E-007   2.5549849790605238E-007   0.0000000000000000     
   4.5357502022689149E-007   2.7613789743189784E-007   0.0000000000000000     
   4.7797393641221115E-007   2.9761772450796395E-007   0.0000000000000000     
   5.0228066749087900E-007   3.1993300670522299E-007   0.0000000000000000     
   5.2649052520317885E-007   3.4307877159464658E-007   0.0000000000000000     
   5.5059882128939392E-007   3.6705004674720689E-007   0.0000000000000000     
   5.7460086748980765E-007   3.9184185973387587E-007   0.0000000000000000     
   5.9849197554470346E-007   4.1744923812562574E-007   0.0000000000000000     
   3.8670774593817435E-007   2.2858383056636349E-007   0.0000000000000000     
   4.1046113484366204E-007   2.4842132771465307E-007   0.0000000000000000     
   4.3411152039797660E-007   2.6908267460682069E-007   0.0000000000000000     
   4.5765888815118101E-007   2.9056814436359607E-007   0.0000000000000000     
   4.8110322365333830E-007   3.1287801010570925E-007   0.0000000000000000     
   5.0444451245451215E-007   3.3601254495389041E-007   0.0000000000000000     
   5.2768274010476507E-007   3.5997202202886910E-007   0.0000000000000000     
   5.5081789215416030E-007   3.8475671445137555E-007   0.0000000000000000     
   5.7384995415276150E-007   4.1036689534214006E-007   0.0000000000000000     
   3.6921168993865533E-007   2.2175647075539687E-007   0.0000000000000000     
   3.9213409557377539E-007   2.4163186873564317E-007   0.0000000000000000     
   4.1493561794420310E-007   2.6230957668691902E-007   0.0000000000000000     
   4.3762063181242904E-007   2.8379521661914053E-007   0.0000000000000000     
   4.6019351194094351E-007   3.0609441054222308E-007   0.0000000000000000     
   4.8265863309223683E-007   3.2921278046608188E-007   0.0000000000000000     
   5.0502037002879946E-007   3.5315594840063307E-007   0.0000000000000000     
   5.2728309751312166E-007   3.7792953635579196E-007   0.0000000000000000     
   5.4945119030769357E-007   4.0353916634147367E-007   0.0000000000000000     
   3.5202900570600921E-007   2.1521645020167312E-007   0.0000000000000000     
   3.7409924668025821E-007   2.3511527552534401E-007   0.0000000000000000     
   3.9603707907570943E-007   2.5580069996591481E-007   0.0000000000000000     
   4.1785008058772479E-007   2.7728251654663925E-007   0.0000000000000000     
   4.3954582891166669E-007   2.9957051829077090E-007   0.0000000000000000     
   4.6113190174289725E-007   3.2267449822156357E-007   0.0000000000000000     
   4.8261587677677859E-007   3.4660424936227096E-007   0.0000000000000000     
   5.0400533170867311E-007   3.7136956473614668E-007   0.0000000000000000     
   5.2530784423394282E-007   3.9698023736644436E-007   0.0000000000000000     
   7.2492533785203081E-007   4.5618364028672994E-007   0.0000000000000000     
   7.5282810395334289E-007   4.8240662521876926E-007   0.0000000000000000     
   7.8063666470405241E-007   5.0948313715361533E-007   0.0000000000000000     
   8.0835068972129410E-007   5.3741069382941018E-007   0.0000000000000000     
   8.3596984862220258E-007   5.6618681298429579E-007   0.0000000000000000     
   8.6349381102391287E-007   5.9580901235641437E-007   0.0000000000000000     
   8.9092224654355982E-007   6.2627480968390810E-007   0.0000000000000000     
   9.1825482479827824E-007   6.5758172270491897E-007   0.0000000000000000     
   9.4549121540520308E-007   6.8972726915758949E-007   0.0000000000000000     