 <VTKFile type="UnstructuredGrid"  version="0.1"   >
 <UnstructuredGrid>
 <Piece  NumberOfPoints="           400 "  NumberOfCells="          256 ">
 <Points>
 <DataArray  type="Float64" NumberOfComponents="3"  format="ascii" >
  -10.000000000000000        0.0000000000000000        0.0000000000000000     
  -9.6875000000000000        0.0000000000000000        0.0000000000000000     
  -9.3750000000000000        0.0000000000000000        0.0000000000000000     
  -9.0625000000000000        0.0000000000000000        0.0000000000000000     
  -8.7500000000000000        0.0000000000000000        0.0000000000000000     
  -10.000000000000000       0.31250000000000000        0.0000000000000000     
  -9.6875000000000000       0.31249999999999994        0.0000000000000000     
  -9.3750000000000000       0.31249999999999994        0.0000000000000000     
  -9.0624999999999982       0.31250000000000000        0.0000000000000000     
  -8.7499999999999982       0.31249999999999994        0.0000000000000000     
  -10.000000000000000       0.62499999999999989        0.0000000000000000     
  -9.6875000000000000       0.62500000000000000        0.0000000000000000     
  -9.3749999999999982       0.62499999999999989        0.0000000000000000     
  -9.0624999999999982       0.62499999999999989        0.0000000000000000     
  -8.7500000000000000       0.62500000000000000        0.0000000000000000     
  -10.000000000000000       0.93750000000000000        0.0000000000000000     
  -9.6875000000000000       0.93750000000000000        0.0000000000000000     
  -9.3749999999999982       0.93750000000000000        0.0000000000000000     
  -9.0625000000000000       0.93750000000000000        0.0000000000000000     
  -8.7499999999999982       0.93750000000000000        0.0000000000000000     
  -10.000000000000002        1.2500000000000002        0.0000000000000000     
  -9.6874999999999982        1.2500000000000000        0.0000000000000000     
  -9.3750000000000000        1.2499999999999998        0.0000000000000000     
  -9.0625000000000000        1.2500000000000002        0.0000000000000000     
  -8.7500000000000000        1.2500000000000002        0.0000000000000000     
  -8.7500000000000000        0.0000000000000000        0.0000000000000000     
  -8.4374999999999982        0.0000000000000000        0.0000000000000000     
  -8.1250000000000000        0.0000000000000000        0.0000000000000000     
  -7.8124999999999991        0.0000000000000000        0.0000000000000000     
  -7.5000000000000018        0.0000000000000000        0.0000000000000000     
  -8.7499999999999982       0.31249999999999994        0.0000000000000000     
  -8.4374999999999982       0.31249999999999994        0.0000000000000000     
  -8.1249999999999982       0.31249999999999994        0.0000000000000000     
  -7.8124999999999991       0.31250000000000000        0.0000000000000000     
  -7.5000000000000000       0.31250000000000000        0.0000000000000000     
  -8.7500000000000000       0.62500000000000000        0.0000000000000000     
  -8.4374999999999982       0.62499999999999989        0.0000000000000000     
  -8.1250000000000000       0.62499999999999989        0.0000000000000000     
  -7.8125000000000000       0.62500000000000011        0.0000000000000000     
  -7.4999999999999991       0.62499999999999978        0.0000000000000000     
  -8.7499999999999982       0.93750000000000000        0.0000000000000000     
  -8.4375000000000018       0.93750000000000000        0.0000000000000000     
  -8.1250000000000000       0.93750000000000000        0.0000000000000000     
  -7.8125000000000000       0.93750000000000000        0.0000000000000000     
  -7.5000000000000018       0.93750000000000011        0.0000000000000000     
  -8.7500000000000000        1.2500000000000002        0.0000000000000000     
  -8.4375000000000018        1.2500000000000002        0.0000000000000000     
  -8.1249999999999982        1.2499999999999998        0.0000000000000000     
  -7.8125000000000000        1.2500000000000002        0.0000000000000000     
  -7.5000000000000009        1.2500000000000002        0.0000000000000000     
  -7.5000000000000018        0.0000000000000000        0.0000000000000000     
  -7.1875000000000000        0.0000000000000000        0.0000000000000000     
  -6.8750000000000000        0.0000000000000000        0.0000000000000000     
  -6.5625000000000000        0.0000000000000000        0.0000000000000000     
  -6.2500000000000000        0.0000000000000000        0.0000000000000000     
  -7.5000000000000000       0.31250000000000000        0.0000000000000000     
  -7.1874999999999991       0.31249999999999994        0.0000000000000000     
  -6.8749999999999991       0.31249999999999994        0.0000000000000000     
  -6.5625000000000000       0.31250000000000000        0.0000000000000000     
  -6.2499999999999991       0.31249999999999994        0.0000000000000000     
  -7.4999999999999991       0.62499999999999978        0.0000000000000000     
  -7.1875000000000000       0.62499999999999989        0.0000000000000000     
  -6.8750000000000000       0.62500000000000022        0.0000000000000000     
  -6.5624999999999991       0.62499999999999978        0.0000000000000000     
  -6.2500000000000000       0.62500000000000000        0.0000000000000000     
  -7.5000000000000018       0.93750000000000011        0.0000000000000000     
  -7.1875000000000000       0.93750000000000000        0.0000000000000000     
  -6.8750000000000000       0.93750000000000000        0.0000000000000000     
  -6.5625000000000009       0.93750000000000000        0.0000000000000000     
  -6.2499999999999982       0.93750000000000000        0.0000000000000000     
  -7.5000000000000009        1.2500000000000002        0.0000000000000000     
  -7.1875000000000000        1.2500000000000002        0.0000000000000000     
  -6.8750000000000000        1.2500000000000000        0.0000000000000000     
  -6.5625000000000000        1.2500000000000000        0.0000000000000000     
  -6.2500000000000000        1.2500000000000002        0.0000000000000000     
  -6.2500000000000000        0.0000000000000000        0.0000000000000000     
  -5.9375000000000000        0.0000000000000000        0.0000000000000000     
  -5.6250000000000000        0.0000000000000000        0.0000000000000000     
  -5.3124999999999991        0.0000000000000000        0.0000000000000000     
  -5.0000000000000000        0.0000000000000000        0.0000000000000000     
  -6.2499999999999991       0.31249999999999994        0.0000000000000000     
  -5.9374999999999991       0.31250000000000000        0.0000000000000000     
  -5.6249999999999991       0.31250000000000000        0.0000000000000000     
  -5.3125000000000000       0.31250000000000000        0.0000000000000000     
  -5.0000000000000000       0.31250000000000000        0.0000000000000000     
  -6.2500000000000000       0.62500000000000000        0.0000000000000000     
  -5.9374999999999991       0.62499999999999989        0.0000000000000000     
  -5.6250000000000000       0.62500000000000000        0.0000000000000000     
  -5.3125000000000000       0.62500000000000000        0.0000000000000000     
  -5.0000000000000000       0.62499999999999989        0.0000000000000000     
  -6.2499999999999982       0.93750000000000000        0.0000000000000000     
  -5.9375000000000000       0.93750000000000000        0.0000000000000000     
  -5.6250000000000000       0.93750000000000000        0.0000000000000000     
  -5.3125000000000000       0.93750000000000000        0.0000000000000000     
  -5.0000000000000000       0.93750000000000000        0.0000000000000000     
  -6.2500000000000000        1.2500000000000002        0.0000000000000000     
  -5.9374999999999991        1.2500000000000000        0.0000000000000000     
  -5.6249999999999991        1.2500000000000000        0.0000000000000000     
  -5.3125000000000000        1.2499999999999998        0.0000000000000000     
  -5.0000000000000009        1.2500000000000002        0.0000000000000000     
  -10.000000000000002        1.2500000000000002        0.0000000000000000     
  -9.6874999999999982        1.2500000000000000        0.0000000000000000     
  -9.3750000000000000        1.2499999999999998        0.0000000000000000     
  -9.0625000000000000        1.2500000000000002        0.0000000000000000     
  -8.7500000000000000        1.2500000000000002        0.0000000000000000     
  -9.9999999999999982        1.5624999999999998        0.0000000000000000     
  -9.6875000000000000        1.5625000000000000        0.0000000000000000     
  -9.3750000000000000        1.5625000000000002        0.0000000000000000     
  -9.0625000000000000        1.5625000000000000        0.0000000000000000     
  -8.7500000000000000        1.5625000000000000        0.0000000000000000     
  -10.000000000000000        1.8749999999999998        0.0000000000000000     
  -9.6874999999999982        1.8749999999999998        0.0000000000000000     
  -9.3749999999999982        1.8749999999999998        0.0000000000000000     
  -9.0624999999999982        1.8749999999999998        0.0000000000000000     
  -8.7500000000000000        1.8750000000000000        0.0000000000000000     
  -10.000000000000000        2.1874999999999996        0.0000000000000000     
  -9.6874999999999982        2.1874999999999996        0.0000000000000000     
  -9.3750000000000000        2.1875000000000009        0.0000000000000000     
  -9.0625000000000000        2.1875000000000000        0.0000000000000000     
  -8.7500000000000000        2.1875000000000000        0.0000000000000000     
  -10.000000000000004        2.5000000000000004        0.0000000000000000     
  -9.6875000000000000        2.5000000000000004        0.0000000000000000     
  -9.3750000000000000        2.4999999999999996        0.0000000000000000     
[...]
 <PointData>
 <DataArray  type="Float64" Name="disp" NumberOfComponents="3" format="ascii">
   0.0000000000000000        0.0000000000000000        0.0000000000000000     
   1.4057587713176959E-007   7.5971204280937864E-008   0.0000000000000000     
   2.6745681039155703E-007   1.4161510179701995E-007   0.0000000000000000     
   3.8525299275883928E-007   2.0517137644780926E-007   0.0000000000000000     
   4.9857461721309307E-007   2.7487971213286876E-007   0.0000000000000000     
   0.0000000000000000        0.0000000000000000        0.0000000000000000     
   1.0600828379524122E-007   4.9823004216834026E-008   0.0000000000000000     
   2.1237630397867445E-007   1.0561390480578110E-007   0.0000000000000000     
   3.1808683828641411E-007   1.6923599927755683E-007   0.0000000000000000     
   4.2212266445457452E-007   2.4255258514287685E-007   0.0000000000000000     
   0.0000000000000000        0.0000000000000000        0.0000000000000000     
   8.2266414184478479E-008   3.2566222862778886E-008   0.0000000000000000     
   1.7021073350405803E-007   7.9934472765787980E-008   0.0000000000000000     
   2.6094787726409205E-007   1.4094673605061201E-007   0.0000000000000000     
   3.5159276476993427E-007   2.1444499905883566E-007   0.0000000000000000     
   0.0000000000000000        0.0000000000000000        0.0000000000000000     
   6.5646157634509818E-008   2.1801364428047112E-008   0.0000000000000000     
   1.3683533639115661E-007   6.2225424188261734E-008   0.0000000000000000     
   2.1110541350306825E-007   1.1925798312720252E-007   0.0000000000000000     
   2.8599426620337250E-007   1.9088484509142810E-007   0.0000000000000000     
   0.0000000000000000        0.0000000000000000        0.0000000000000000     
   5.2443403480363629E-008   1.5128933121913380E-008   0.0000000000000000     
   1.0812535006341935E-007   5.0135377584423514E-008   0.0000000000000000     
   1.6582875081453776E-007   1.0312413686755629E-007   0.0000000000000000     
   2.2433651679908940E-007   1.7220001445133750E-007   0.0000000000000000     
   4.9857461721309307E-007   2.7487971213286876E-007   0.0000000000000000     
   6.1117776483851146E-007   3.5755047230524747E-007   0.0000000000000000     
   7.2340206913815300E-007   4.5427673863193982E-007   0.0000000000000000     
   8.3473305171979162E-007   5.6472227233342581E-007   0.0000000000000000     
   9.4465623419120232E-007   6.8855083463018575E-007   0.0000000000000000     
   4.2212266445457452E-007   2.4255258514287685E-007   0.0000000000000000     
   5.2369972362943729E-007   3.2722563650383796E-007   0.0000000000000000     
   6.2296661059795445E-007   4.2411183382806188E-007   0.0000000000000000     
   7.2030508355724490E-007   5.3386653417455139E-007   0.0000000000000000     
   8.1609690070442795E-007   6.5714509460230948E-007   0.0000000000000000     
   3.5159276476993427E-007   2.1444499905883566E-007   0.0000000000000000     
   4.3982393351944555E-007   2.9958823098383113E-007   0.0000000000000000     
   5.2557439378051721E-007   3.9680333242612176E-007   0.0000000000000000     
   6.0934077401354811E-007   5.0683418683801796E-007   0.0000000000000000     
   6.9161970267893637E-007   6.3042467767183062E-007   0.0000000000000000     
   2.8599426620337250E-007   1.9088484509142810E-007   0.0000000000000000     
   3.5948047139221464E-007   2.7548271813175580E-007   0.0000000000000000     
   4.3130540463780953E-007   3.7299192711603743E-007   0.0000000000000000     
   5.0165114117538993E-007   4.8374370111638428E-007   0.0000000000000000     
   5.7069975624018769E-007   6.0806926920490687E-007   0.0000000000000000     
   2.2433651679908940E-007   1.7220001445133750E-007   0.0000000000000000     
   2.8259941413142309E-007   2.5575356033414046E-007   0.0000000000000000     
   3.4023962912179991E-007   3.5331831058772768E-007   0.0000000000000000     
   3.9704720312945934E-007   4.6471354780220917E-007   0.0000000000000000     
   4.5281217751364110E-007   5.8975855456769477E-007   0.0000000000000000     
   9.4465623419120232E-007   6.8855083463018575E-007   0.0000000000000000     
   1.0527438747691498E-006   8.2548268584313517E-007   0.0000000000000000     
   1.1589151781063630E-006   9.7546408269493141E-007   0.0000000000000000     
   1.2631760854645601E-006   1.1384977810086671E-006   0.0000000000000000     
   1.3655325381054602E-006   1.3145865366074346E-006   0.0000000000000000     
   8.1609690070442795E-007   6.5714509460230948E-007   0.0000000000000000     
   9.1062666653669064E-007   7.9441522864915424E-007   0.0000000000000000     
   1.0037903707514959E-006   9.4539407576816887E-007   0.0000000000000000     
   1.0953868493463740E-006   1.1096111318912512E-006   0.0000000000000000     
   1.1852149383188550E-006   1.2865958929502996E-006   0.0000000000000000     
   6.9161970267893637E-007   6.3042467767183062E-007   0.0000000000000000     
   7.7279416428510456E-007   7.6810893027323874E-007   0.0000000000000000     
   8.5279256753256916E-007   9.1958203756139598E-007   0.0000000000000000     
   9.3142967716986893E-007   1.0843293343488237E-006   0.0000000000000000     
   1.0085202579455446E-006   1.2618361554480441E-006   0.0000000000000000     
   5.7069975624018769E-007   6.0806926920490687E-007   0.0000000000000000     
   6.3859407978872408E-007   7.4618818005277444E-007   0.0000000000000000     
   7.0531996066267382E-007   8.9787326072739452E-007   0.0000000000000000     
   7.7082400242500114E-007   1.0627856578952318E-006   0.0000000000000000     
   8.3505280863866895E-007   1.2405865182227517E-006   0.0000000000000000     
   4.5281217751364110E-007   5.8975855456769477E-007   0.0000000000000000     
   5.0737412482188099E-007   7.2827736732514814E-007   0.0000000000000000     
   5.6077074235490241E-007   8.8011303791894723E-007   0.0000000000000000     
   6.1308925860172522E-007   1.0451133720443235E-006   0.0000000000000000     
   6.6441690205136953E-007   1.2231261753965084E-006   0.0000000000000000     
   1.3655325381054602E-006   1.3145865366074346E-006   0.0000000000000000     
   1.4659900351477769E-006   1.5036452382213311E-006   0.0000000000000000     
   1.5645523071382050E-006   1.7052373062084724E-006   0.0000000000000000     
   1.6612226424804340E-006   1.9188382938339789E-006   0.0000000000000000     
   1.7560043295781524E-006   2.1439237543629700E-006   0.0000000000000000     
   1.1852149383188550E-006   1.2865958929502996E-006   0.0000000000000000     
   1.2731336127246954E-006   1.4759589788339475E-006   0.0000000000000000     
   1.3592424038525529E-006   1.6776355052577686E-006   0.0000000000000000     
   1.4437009820493109E-006   1.8916417118940721E-006   0.0000000000000000     
   1.5266690176618513E-006   2.1179938384151670E-006   0.0000000000000000     
   1.0085202579455446E-006   1.2618361554480441E-006   0.0000000000000000     
   1.0839345531796826E-006   1.4516819367452849E-006   0.0000000000000000     
   1.1577647204785623E-006   1.6538225184216002E-006   0.0000000000000000     
   1.2301583960200092E-006   1.8683078417317483E-006   0.0000000000000000     
   1.3012632159818505E-006   2.0951878479304906E-006   0.0000000000000000     
   8.3505280863866895E-007   1.2405865182227517E-006   0.0000000000000000     
   8.9796986056610786E-007   1.4309651492573674E-006   0.0000000000000000     
   9.5960615026761451E-007   1.6337235020702743E-006   0.0000000000000000     
   1.0200095475029516E-006   1.8486916886136177E-006   0.0000000000000000     
   1.0792279220318817E-006   2.0756998208395419E-006   0.0000000000000000     
   6.6441690205136953E-007   1.2231261753965084E-006   0.0000000000000000     
   7.1481653893734146E-007   1.4139596536722172E-006   0.0000000000000000     
   7.6425358647109232E-007   1.6172636125741000E-006   0.0000000000000000     
   8.1266909960855823E-007   1.8326482578062899E-006   0.0000000000000000     
   8.6000413330567713E-007   2.0597237950729206E-006   0.0000000000000000     
   0.0000000000000000        0.0000000000000000        0.0000000000000000     
   5.2443403480363629E-008   1.5128933121913380E-008   0.0000000000000000     
   1.0812535006341935E-007   5.0135377584423514E-008   0.0000000000000000     
   1.6582875081453776E-007   1.0312413686755629E-007   0.0000000000000000     
   2.2433651679908940E-007   1.7220001445133750E-007   0.0000000000000000     
   0.0000000000000000        0.0000000000000000        0.0000000000000000     
   3.9583334845778205E-008   1.0521314208785462E-008   0.0000000000000000     
   8.0620945365028164E-008   4.1642220411685700E-008   0.0000000000000000     
   1.2276584633767617E-007   9.1583604975579515E-008   0.0000000000000000     
   1.6567105254364844E-007   1.5856635426734571E-007   0.0000000000000000     
   0.0000000000000000        0.0000000000000000        0.0000000000000000     
   2.6508310009330979E-008   7.4384171736034598E-009   0.0000000000000000     
   5.3522026823096805E-008   3.6040915912225858E-008   0.0000000000000000     
   8.1079270523580851E-008   8.4010840529892680E-008   0.0000000000000000     
   1.0921816119306649E-007   1.4955153534062942E-007   0.0000000000000000     
   0.0000000000000000        0.0000000000000000        0.0000000000000000     
   1.3289981038309225E-008   5.7120325564405769E-009   0.0000000000000000     
   2.6693432385472017E-008   3.2955696274412804E-008   0.0000000000000000     
   4.0310247151329779E-008   7.9864307952794707E-008   0.0000000000000000     
   5.4240318445723967E-008   1.4457118439046428E-007   0.0000000000000000     
   0.0000000000000000        0.0000000000000000        0.0000000000000000     
   2.2995621028974169E-022   5.1739508973700096E-009   0.0000000000000000     
   5.1119761855777110E-022   3.2010793686615354E-008   0.0000000000000000     
   8.1311854213962620E-022   7.8602471666584482E-008   0.0000000000000000     
   1.0997366243892503E-021   1.4304092813612579E-007   0.0000000000000000     
   2.2433651679908940E-007   1.7220001445133750E-007   0.0000000000000000     
   2.8259941413142309E-007   2.5575356033414046E-007   0.0000000000000000     
   3.4023962912179991E-007   3.5331831058772768E-007   0.0000000000000000     
   3.9704720312945934E-007   4.6471354780220917E-007   0.0000000000000000     
   4.5281217751364110E-007   5.8975855456769477E-007   0.0000000000000000     
   1.6567105254364844E-007   1.5856635426734571E-007   0.0000000000000000     
   2.0898113906721451E-007   2.4102898089318098E-007   0.0000000000000000     
   2.5230692221001729E-007   3.3828050241655461E-007   0.0000000000000000     
   2.9525077857804283E-007   4.4984756264025364E-007   0.0000000000000000     
   3.3741508477727716E-007   5.7525680536706526E-007   0.0000000000000000     
   1.0921816119306649E-007   1.4955153534062942E-007   0.0000000000000000     
   1.3790722531559435E-007   2.3107224677374211E-007   0.0000000000000000     
   1.6683661498223436E-007   3.2780582971965913E-007   0.0000000000000000     
   1.9562688868581378E-007   4.3919104118408919E-007   0.0000000000000000     
   2.2389860491915963E-007   5.6466663817274143E-007   0.0000000000000000     
   5.4240318445723967E-008   1.4457118439046428E-007   0.0000000000000000     
   6.8529552439033159E-008   2.2543038585635568E-007   0.0000000000000000     
   8.3007907543784754E-008   3.2167894649962619E-007   0.0000000000000000     
   9.7451355233043190E-008   4.3277464393948981E-007   0.0000000000000000     
   1.1163586697987318E-007   5.5817525579516036E-007   0.0000000000000000     
   1.0997366243892503E-021   1.4304092813612579E-007   0.0000000000000000     
   1.3631936494873896E-021   2.2365042602155294E-007   0.0000000000000000     
   1.6106240502173140E-021   3.1968450675904073E-007   0.0000000000000000     
   1.8523869712815431E-021   4.3062903141222919E-007   0.0000000000000000     
   2.0886310466963949E-021   5.5596986104475849E-007   0.0000000000000000     
   4.5281217751364110E-007   5.8975855456769477E-007   0.0000000000000000     
   5.0737412482188099E-007   7.2827736732514814E-007   0.0000000000000000     
   5.6077074235490241E-007   8.8011303791894723E-007   0.0000000000000000     
   6.1308925860172522E-007   1.0451133720443235E-006   0.0000000000000000     
   6.6441690205136953E-007   1.2231261753965084E-006   0.0000000000000000     
   3.3741508477727716E-007   5.7525680536706526E-007   0.0000000000000000     
   3.7849373247552481E-007   7.1409460279265023E-007   0.0000000000000000     
   4.1854667358786384E-007   8.6618624068416558E-007   0.0000000000000000     
   4.5772537509119021E-007   1.0314167332016415E-006   0.0000000000000000     
   4.9618130396240058E-007   1.2096710945051095E-006   0.0000000000000000     
   2.2389860491915963E-007   5.6466663817274143E-007   0.0000000000000000     
   2.5135922110707150E-007   7.0373288261719086E-007   0.0000000000000000     
   2.7806379040223681E-007   8.5613605615247808E-007   0.0000000000000000     
   3.0415426488931619E-007   1.0216839453395113E-006   0.0000000000000000     
   3.2977259665296935E-007   1.2001843367391964E-006   0.0000000000000000     
   1.1163586697987318E-007   5.5817525579516036E-007   0.0000000000000000     
   1.2538863039055304E-007   6.9737892432558462E-007   0.0000000000000000     
   1.3874169760421785E-007   8.5004525034864336E-007   0.0000000000000000     
   1.5177833689321607E-007   1.0158741993219517E-006   0.0000000000000000     
   1.6458181652989662E-007   1.1945657367031233E-006   0.0000000000000000     
   2.0886310466963949E-021   5.5596986104475849E-007   0.0000000000000000     
   2.3483657590380456E-021   6.9521944544464597E-007   0.0000000000000000     
   2.6243338909010494E-021   8.4799658929741909E-007   0.0000000000000000     
   2.8633503138376610E-021   1.0139466860129830E-006   0.0000000000000000     
   3.0969642133985356E-021   1.1927151290012426E-006   0.0000000000000000     
   6.6441690205136953E-007   1.2231261753965084E-006   0.0000000000000000     
   7.1481653893734146E-007   1.4139596536722172E-006   0.0000000000000000     
   7.6425358647109232E-007   1.6172636125741000E-006   0.0000000000000000     
   8.1266909960855823E-007   1.8326482578062899E-006   0.0000000000000000     
   8.6000413330567713E-007   2.0597237950729206E-006   0.0000000000000000     
   4.9618130396240058E-007   1.2096710945051095E-006   0.0000000000000000     
   5.3402257604460109E-007   1.4007840266383400E-006   0.0000000000000000     
   5.7118390264573851E-007   1.6043889831800697E-006   0.0000000000000000     
   6.0755664393996937E-007   1.8200691055927746E-006   0.0000000000000000     
   6.4303216010145020E-007   2.0474075353389309E-006   0.0000000000000000     
   3.2977259665296935E-007   1.2001843367391964E-006   0.0000000000000000     
   3.5501989443049428E-007   1.3914270021901619E-006   0.0000000000000000     
   3.7983389356974027E-007   1.5951296546419139E-006   0.0000000000000000     
   4.0411148607119489E-007   1.8109919923216805E-006   0.0000000000000000     
   4.2774956393534530E-007   2.0387137134566886E-006   0.0000000000000000     
   1.6458181652989662E-007   1.1945657367031233E-006   0.0000000000000000     
   1.7721140033547651E-007   1.3858448537085893E-006   0.0000000000000000     
   1.8963033432664603E-007   1.5895366445900494E-006   0.0000000000000000     
   2.0177786006896361E-007   1.8054912293580177E-006   0.0000000000000000     
   2.1359321912798800E-007   2.0335587280230106E-006   0.0000000000000000     
   3.0969642133985356E-021   1.1927151290012426E-006   0.0000000000000000     
   3.2789439481602017E-021   1.3839938545745303E-006   0.0000000000000000     
   3.5138632421252616E-021   1.5876609706548907E-006   0.0000000000000000     
   3.8236423815263704E-021   1.8036411280667948E-006   0.0000000000000000     
   4.3675136342799861E-021   2.0318589776347145E-006   0.0000000000000000     
   0.0000000000000000        0.0000000000000000        0.0000000000000000     
   2.2995621028974169E-022   5.1739508973700096E-009   0.0000000000000000     
   5.1119761855777110E-022   3.2010793686615354E-008   0.0000000000000000     
   8.1311854213962620E-022   7.8602471666584482E-008   0.0000000000000000     
   1.0997366243892503E-021   1.4304092813612579E-007   0.0000000000000000     
   0.0000000000000000        0.0000000000000000        0.0000000000000000     
  -1.3289981038308755E-008   5.7120325564405521E-009   0.0000000000000000     
  -2.6693432385470985E-008   3.2955696274412744E-008   0.0000000000000000     
  -4.0310247151328164E-008   7.9864307952794627E-008   0.0000000000000000     
  -5.4240318445721777E-008   1.4457118439046420E-007   0.0000000000000000     
   0.0000000000000000        0.0000000000000000        0.0000000000000000     
  -2.6508310009330469E-008   7.4384171736034077E-009   0.0000000000000000     
  -5.3522026823095759E-008   3.6040915912225752E-008   0.0000000000000000     
  -8.1079270523579223E-008   8.4010840529892521E-008   0.0000000000000000     
  -1.0921816119306432E-007   1.4955153534062927E-007   0.0000000000000000     
   0.0000000000000000        0.0000000000000000        0.0000000000000000     
  -3.9583334845777669E-008   1.0521314208785376E-008   0.0000000000000000     
  -8.0620945365027065E-008   4.1642220411685515E-008   0.0000000000000000     
  -1.2276584633767450E-007   9.1583604975579264E-008   0.0000000000000000     
  -1.6567105254364624E-007   1.5856635426734541E-007   0.0000000000000000     
   0.0000000000000000        0.0000000000000000        0.0000000000000000     
  -5.2443403480363106E-008   1.5128933121913255E-008   0.0000000000000000     
  -1.0812535006341825E-007   5.0135377584423256E-008   0.0000000000000000     
  -1.6582875081453607E-007   1.0312413686755590E-007   0.0000000000000000     
  -2.2433651679908720E-007   1.7220001445133713E-007   0.0000000000000000     
   1.0997366243892503E-021   1.4304092813612579E-007   0.0000000000000000     
   1.3631936494873896E-021   2.2365042602155294E-007   0.0000000000000000     
   1.6106240502173140E-021   3.1968450675904073E-007   0.0000000000000000     
   1.8523869712815431E-021   4.3062903141222919E-007   0.0000000000000000     
   2.0886310466963949E-021   5.5596986104475849E-007   0.0000000000000000     
  -5.4240318445721777E-008   1.4457118439046420E-007   0.0000000000000000     
  -6.8529552439030433E-008   2.2543038585635539E-007   0.0000000000000000     
  -8.3007907543781498E-008   3.2167894649962614E-007   0.0000000000000000     
  -9.7451355233039497E-008   4.3277464393948981E-007   0.0000000000000000     
  -1.1163586697986897E-007   5.5817525579516047E-007   0.0000000000000000     
  -1.0921816119306432E-007   1.4955153534062927E-007   0.0000000000000000     
  -1.3790722531559165E-007   2.3107224677374200E-007   0.0000000000000000     
  -1.6683661498223124E-007   3.2780582971965902E-007   0.0000000000000000     
  -1.9562688868581007E-007   4.3919104118408924E-007   0.0000000000000000     
  -2.2389860491915545E-007   5.6466663817274154E-007   0.0000000000000000     
  -1.6567105254364624E-007   1.5856635426734541E-007   0.0000000000000000     
  -2.0898113906721178E-007   2.4102898089318061E-007   0.0000000000000000     
  -2.5230692221001400E-007   3.3828050241655445E-007   0.0000000000000000     
  -2.9525077857803902E-007   4.4984756264025359E-007   0.0000000000000000     
  -3.3741508477727282E-007   5.7525680536706494E-007   0.0000000000000000     
  -2.2433651679908720E-007   1.7220001445133713E-007   0.0000000000000000     
  -2.8259941413142023E-007   2.5575356033414009E-007   0.0000000000000000     
  -3.4023962912179663E-007   3.5331831058772742E-007   0.0000000000000000     
  -3.9704720312945569E-007   4.6471354780220906E-007   0.0000000000000000     
  -4.5281217751363686E-007   5.8975855456769477E-007   0.0000000000000000     
   2.0886310466963949E-021   5.5596986104475849E-007   0.0000000000000000     
   2.3483657590380456E-021   6.9521944544464597E-007   0.0000000000000000     