 <VTKFile type="UnstructuredGrid"  version="0.1"   >
 <UnstructuredGrid>
 <Piece  NumberOfPoints="           200 "  NumberOfCells="          128 ">
 <Points>
 <DataArray  type="Float64" NumberOfComponents="3"  format="ascii" >
  -10.000000000000000        0.0000000000000000        0.0000000000000000     
  -8.7500000000000000        0.0000000000000000        0.0000000000000000     
  -7.5000000000000000        0.0000000000000000        0.0000000000000000     
  -6.2500000000000000        0.0000000000000000        0.0000000000000000     
  -5.0000000000000000        0.0000000000000000        0.0000000000000000     
  -10.000000000000000       0.31250000000000000        0.0000000000000000     
  -8.7500000000000000       0.30901489257812498        0.0000000000000000     
  -7.5000000000000000       0.29855957031250002        0.0000000000000000     
  -6.2500000000000000       0.28113403320312502        0.0000000000000000     
  -5.0000000000000000       0.25673828124999998        0.0000000000000000     
  -10.000000000000000       0.62500000000000000        0.0000000000000000     
  -8.7500000000000000       0.61848144531250004        0.0000000000000000     
  -7.5000000000000000       0.59892578124999996        0.0000000000000000     
  -6.2500000000000000       0.56633300781249996        0.0000000000000000     
  -5.0000000000000000       0.52070312500000004        0.0000000000000000     
  -10.000000000000000       0.93750000000000000        0.0000000000000000     
  -8.7500000000000000       0.92839965820312509        0.0000000000000000     
  -7.5000000000000000       0.90109863281249991        0.0000000000000000     
  -6.2500000000000000       0.85559692382812502        0.0000000000000000     
  -5.0000000000000000       0.79189453125000009        0.0000000000000000     
  -10.000000000000000        1.2500000000000000        0.0000000000000000     
  -8.7500000000000000        1.2387695312500000        0.0000000000000000     
  -7.5000000000000000        1.2050781250000000        0.0000000000000000     
  -6.2500000000000000        1.1489257812500000        0.0000000000000000     
  -5.0000000000000000        1.0703125000000000        0.0000000000000000     
  -5.0000000000000000        0.0000000000000000        0.0000000000000000     
  -3.7500000000000000        0.0000000000000000        0.0000000000000000     
  -2.5000000000000000        0.0000000000000000        0.0000000000000000     
  -1.2500000000000000        0.0000000000000000        0.0000000000000000     
   0.0000000000000000        0.0000000000000000        0.0000000000000000     
  -5.0000000000000000       0.25673828124999998        0.0000000000000000     
  -3.7500000000000000       0.22537231445312500        0.0000000000000000     
  -2.5000000000000000       0.18703613281250001        0.0000000000000000     
  -1.2500000000000000       0.14172973632812502        0.0000000000000000     
   0.0000000000000000        8.9453124999999994E-002   0.0000000000000000     
  -5.0000000000000000       0.52070312500000004        0.0000000000000000     
  -3.7500000000000000       0.46203613281250000        0.0000000000000000     
  -2.5000000000000000       0.39033203124999999        0.0000000000000000     
  -1.2500000000000000       0.30559082031250001        0.0000000000000000     
   0.0000000000000000       0.20781250000000001        0.0000000000000000     
  -5.0000000000000000       0.79189453125000009        0.0000000000000000     
  -3.7500000000000000       0.70999145507812500        0.0000000000000000     
  -2.5000000000000000       0.60988769531249998        0.0000000000000000     
  -1.2500000000000000       0.49158325195312497        0.0000000000000000     
   0.0000000000000000       0.35507812500000002        0.0000000000000000     
  -5.0000000000000000        1.0703125000000000        0.0000000000000000     
  -3.7500000000000000       0.96923828125000000        0.0000000000000000     
  -2.5000000000000000       0.84570312500000000        0.0000000000000000     
  -1.2500000000000000       0.69970703125000011        0.0000000000000000     
   0.0000000000000000       0.53125000000000000        0.0000000000000000     
  -10.000000000000000        1.2500000000000000        0.0000000000000000     
  -8.7500000000000000        1.2387695312500000        0.0000000000000000     
  -7.5000000000000000        1.2050781250000000        0.0000000000000000     
  -6.2500000000000000        1.1489257812500000        0.0000000000000000     
  -5.0000000000000000        1.0703125000000000        0.0000000000000000     
  -10.000000000000000        1.5625000000000000        0.0000000000000000     
  -8.7500000000000000        1.5495910644531250        0.0000000000000000     
  -7.5000000000000000        1.5108642578125000        0.0000000000000000     
  -6.2500000000000000        1.4463195800781252        0.0000000000000000     
  -5.0000000000000000        1.3559570312500000        0.0000000000000000     
  -10.000000000000000        1.8750000000000000        0.0000000000000000     
  -8.7500000000000000        1.8608642578124999        0.0000000000000000     
  -7.5000000000000000        1.8184570312500001        0.0000000000000000     
  -6.2500000000000000        1.7477783203125001        0.0000000000000000     
  -5.0000000000000000        1.6488281249999999        0.0000000000000000     
  -10.000000000000000        2.1875000000000000        0.0000000000000000     
  -8.7500000000000000        2.1725891113281248        0.0000000000000000     
  -7.5000000000000000        2.1278564453125002        0.0000000000000000     
  -6.2500000000000000        2.0533020019531252        0.0000000000000000     
  -5.0000000000000000        1.9489257812500000        0.0000000000000000     
  -10.000000000000000        2.5000000000000000        0.0000000000000000     
  -8.7500000000000000        2.4847656249999996        0.0000000000000000     
  -7.5000000000000000        2.4390625000000004        0.0000000000000000     
  -6.2500000000000000        2.3628906250000004        0.0000000000000000     
  -5.0000000000000000        2.2562499999999996        0.0000000000000000     
  -5.0000000000000000        1.0703125000000000        0.0000000000000000     
  -3.7500000000000000       0.96923828125000000        0.0000000000000000     
  -2.5000000000000000       0.84570312500000000        0.0000000000000000     
  -1.2500000000000000       0.69970703125000011        0.0000000000000000     
   0.0000000000000000       0.53125000000000000        0.0000000000000000     
  -5.0000000000000000        1.3559570312500000        0.0000000000000000     
  -3.7500000000000000        1.2397766113281250        0.0000000000000000     
  -2.5000000000000000        1.0977783203125000        0.0000000000000000     
  -1.2500000000000000       0.92996215820312489        0.0000000000000000     
   0.0000000000000000       0.73632812500000000        0.0000000000000000     
  -5.0000000000000000        1.6488281249999999        0.0000000000000000     
  -3.7500000000000000        1.5216064453125000        0.0000000000000000     
  -2.5000000000000000        1.3661132812499999        0.0000000000000000     
  -1.2500000000000000        1.1823486328125001        0.0000000000000000     
   0.0000000000000000       0.97031250000000002        0.0000000000000000     
  -5.0000000000000000        1.9489257812500000        0.0000000000000000     
  -3.7500000000000000        1.8147277832031250        0.0000000000000000     
  -2.5000000000000000        1.6507080078125000        0.0000000000000000     
  -1.2500000000000000        1.4568664550781250        0.0000000000000000     
   0.0000000000000000        1.2332031250000000        0.0000000000000000     
  -5.0000000000000000        2.2562499999999996        0.0000000000000000     
  -3.7500000000000000        2.1191406250000000        0.0000000000000000     
  -2.5000000000000000        1.9515624999999999        0.0000000000000000     
  -1.2500000000000000        1.7535156250000001        0.0000000000000000     
   0.0000000000000000        1.5250000000000001        0.0000000000000000     
  -10.000000000000000        2.5000000000000000        0.0000000000000000     
  -8.7500000000000000        2.4847656249999996        0.0000000000000000     
  -7.5000000000000000        2.4390625000000004        0.0000000000000000     
  -6.2500000000000000        2.3628906250000004        0.0000000000000000     
  -5.0000000000000000        2.2562499999999996        0.0000000000000000     
  -10.000000000000000        2.8125000000000000        0.0000000000000000     
  -8.7500000000000000        2.7974182128906246        0.0000000000000000     
  -7.5000000000000000        2.7521728515625004        0.0000000000000000     
  -6.2500000000000000        2.6767639160156254        0.0000000000000000     
  -5.0000000000000000        2.5711914062499996        0.0000000000000000     
  -10.000000000000000        3.1250000000000000        0.0000000000000000     
  -8.7500000000000000        3.1105712890624999        0.0000000000000000     
  -7.5000000000000000        3.0672851562500001        0.0000000000000000     
  -6.2500000000000000        2.9951416015625001        0.0000000000000000     
  -5.0000000000000000        2.8941406249999999        0.0000000000000000     
  -10.000000000000000        3.4375000000000000        0.0000000000000000     
  -8.7500000000000000        3.4242248535156250        0.0000000000000000     
  -7.5000000000000000        3.3843994140625000        0.0000000000000000     
  -6.2500000000000000        3.3180236816406250        0.0000000000000000     
  -5.0000000000000000        3.2250976562500000        0.0000000000000000     
  -10.000000000000000        3.7500000000000000        0.0000000000000000     
  -8.7500000000000000        3.7383789062499999        0.0000000000000000     
  -7.5000000000000000        3.7035156250000001        0.0000000000000000     
[...]
 <PointData>
 <DataArray  type="Float64" Name="disp" NumberOfComponents="3" format="ascii">
   0.0000000000000000       -19994691.854908518        0.0000000000000000     
   2.9104612428717432E-007  -19994691.854908463        0.0000000000000000     
   5.8327347584512174E-007  -19994691.854908254        0.0000000000000000     
   8.7668205467384237E-007  -19994691.854907896        0.0000000000000000     
   1.1712718607733361E-006  -19994691.854907386        0.0000000000000000     
   0.0000000000000000       -19994691.854908537        0.0000000000000000     
   2.5530786882633688E-007  -19994691.854908485        0.0000000000000000     
   5.1562352756222489E-007  -19994691.854908280        0.0000000000000000     
   7.8094697620766384E-007  -19994691.854907919        0.0000000000000000     
   1.0512782147626540E-006  -19994691.854907405        0.0000000000000000     
   0.0000000000000000       -19994691.854908556        0.0000000000000000     
   2.1933791082305720E-007  -19994691.854908504        0.0000000000000000     
   4.4708902820658454E-007  -19994691.854908299        0.0000000000000000     
   6.8325335215058209E-007  -19994691.854907937        0.0000000000000000     
   9.2783088265504979E-007  -19994691.854907420        0.0000000000000000     
   0.0000000000000000       -19994691.854908574        0.0000000000000000     
   1.8313625027733514E-007  -19994691.854908522        0.0000000000000000     
   3.7766997777820076E-007  -19994691.854908310        0.0000000000000000     
   5.8360118250259691E-007  -19994691.854907952        0.0000000000000000     
   8.0092986445052353E-007  -19994691.854907431        0.0000000000000000     
   0.0000000000000000       -19994691.854908593        0.0000000000000000     
   1.4670288718917078E-007  -19994691.854908537        0.0000000000000000     
   3.0736637627707360E-007  -19994691.854908325        0.0000000000000000     
   4.8199046726370840E-007  -19994691.854907963        0.0000000000000000     
   6.7057516014907513E-007  -19994691.854907438        0.0000000000000000     
   1.1712718607733361E-006  -19994691.854907386        0.0000000000000000     
   1.4595964834503520E-006  -19994691.854906723        0.0000000000000000     
   1.7342095120116398E-006  -19994691.854905903        0.0000000000000000     
   1.9951109464571986E-006  -19994691.854904924        0.0000000000000000     
   2.2423007867870298E-006  -19994691.854903791        0.0000000000000000     
   1.0512782147626540E-006  -19994691.854907405        0.0000000000000000     
   1.3248244582206038E-006  -19994691.854906738        0.0000000000000000     
   1.5997929215749217E-006  -19994691.854905915        0.0000000000000000     
   1.8761836048256080E-006  -19994691.854904935        0.0000000000000000     
   2.1539965079726629E-006  -19994691.854903802        0.0000000000000000     
   9.2783088265504979E-007  -19994691.854907420        0.0000000000000000     
   1.1840129938895977E-006  -19994691.854906749        0.0000000000000000     
   1.4549910600238357E-006  -19994691.854905922        0.0000000000000000     
   1.7407650810577651E-006  -19994691.854904946        0.0000000000000000     
   2.0413350569913838E-006  -19994691.854903810        0.0000000000000000     
   8.0092986445052353E-007  -19994691.854907431        0.0000000000000000     
   1.0371620904573340E-006  -19994691.854906756        0.0000000000000000     
   1.2998039273583828E-006  -19994691.854905926        0.0000000000000000     
   1.5888553751536687E-006  -19994691.854904946        0.0000000000000000     
   1.9043164338431924E-006  -19994691.854903821        0.0000000000000000     
   6.7057516014907513E-007  -19994691.854907438        0.0000000000000000     
   8.8427174792381315E-007  -19994691.854906768        0.0000000000000000     
   1.1342315235785614E-006  -19994691.854905941        0.0000000000000000     
   1.4204544871133198E-006  -19994691.854904961        0.0000000000000000     
   1.7429406385280891E-006  -19994691.854903832        0.0000000000000000     
   0.0000000000000000       -19994691.854908593        0.0000000000000000     
   1.4670288718917078E-007  -19994691.854908537        0.0000000000000000     
   3.0736637627707360E-007  -19994691.854908325        0.0000000000000000     
   4.8199046726370840E-007  -19994691.854907963        0.0000000000000000     
   6.7057516014907513E-007  -19994691.854907438        0.0000000000000000     
   0.0000000000000000       -19994691.854908608        0.0000000000000000     
   1.1008003795660020E-007  -19994691.854908548        0.0000000000000000     
   2.3624230193978632E-007  -19994691.854908340        0.0000000000000000     
   3.7848679194955835E-007  -19994691.854907971        0.0000000000000000     
   5.3681350798591624E-007  -19994691.854907446        0.0000000000000000     
   0.0000000000000000       -19994691.854908623        0.0000000000000000     
   7.3309918977659476E-008  -19994691.854908563        0.0000000000000000     
   1.6436183300292240E-007  -19994691.854908347        0.0000000000000000     
   2.7315574207578875E-007  -19994691.854907975        0.0000000000000000     
   3.9969164619625858E-007  -19994691.854907453        0.0000000000000000     
   0.0000000000000000       -19994691.854908630        0.0000000000000000     
   3.6392530252348601E-008  -19994691.854908567        0.0000000000000000     
   9.1724969466481799E-008  -19994691.854908347        0.0000000000000000     
   1.6599731764239959E-007  -19994691.854907975        0.0000000000000000     
   2.5920957478010193E-007  -19994691.854907461        0.0000000000000000     
   0.0000000000000000       -19994691.854908634        0.0000000000000000     
  -6.7212821933240090E-010  -19994691.854908571        0.0000000000000000     
   1.8331711330464556E-008  -19994691.854908355        0.0000000000000000     
   5.7011518649390845E-008  -19994691.854907982        0.0000000000000000     
   1.1536729373744648E-007  -19994691.854907461        0.0000000000000000     
   6.7057516014907513E-007  -19994691.854907438        0.0000000000000000     
   8.8427174792381315E-007  -19994691.854906768        0.0000000000000000     
   1.1342315235785614E-006  -19994691.854905941        0.0000000000000000     
   1.4204544871133198E-006  -19994691.854904961        0.0000000000000000     
   1.7429406385280891E-006  -19994691.854903832        0.0000000000000000     
   5.3681350798591624E-007  -19994691.854907446        0.0000000000000000     
   7.2536438412512715E-007  -19994691.854906771        0.0000000000000000     
   9.5828135444345766E-007  -19994691.854905944        0.0000000000000000     
   1.2355644189409085E-006  -19994691.854904968        0.0000000000000000     
   1.5572135776174787E-006  -19994691.854903840        0.0000000000000000     
   3.9969164619625858E-007  -19994691.854907453        0.0000000000000000     
   5.6046241689736895E-007  -19994691.854906775        0.0000000000000000     
   7.7196092571215704E-007  -19994691.854905955        0.0000000000000000     
   1.0341871726406231E-006  -19994691.854904976        0.0000000000000000     
   1.3471411576827669E-006  -19994691.854903851        0.0000000000000000     
   2.5920957478010193E-007  -19994691.854907461        0.0000000000000000     
   3.8956584624053865E-007  -19994691.854906779        0.0000000000000000     
   5.7527023738465953E-007  -19994691.854905955        0.0000000000000000     
   8.1632274821246441E-007  -19994691.854904979        0.0000000000000000     
   1.1127233787239534E-006  -19994691.854903858        0.0000000000000000     
   1.1536729373744648E-007  -19994691.854907461        0.0000000000000000     
   2.1267467215463626E-007  -19994691.854906786        0.0000000000000000     
   3.6820928946096481E-007  -19994691.854905959        0.0000000000000000     
   5.8197114565643236E-007  -19994691.854904991        0.0000000000000000     
   8.5396024074103861E-007  -19994691.854903869        0.0000000000000000     
   0.0000000000000000       -19994691.854908634        0.0000000000000000     
  -6.7212821933240090E-010  -19994691.854908571        0.0000000000000000     
   1.8331711330464556E-008  -19994691.854908355        0.0000000000000000     
   5.7011518649390845E-008  -19994691.854907982        0.0000000000000000     
   1.1536729373744648E-007  -19994691.854907461        0.0000000000000000     
   0.0000000000000000       -19994691.854908634        0.0000000000000000     
  -3.7757944106460092E-008  -19994691.854908571        0.0000000000000000     
  -5.5687385628411607E-008  -19994691.854908355        0.0000000000000000     
  -5.3788324565854566E-008  -19994691.854907982        0.0000000000000000     
  -3.2060760918788948E-008  -19994691.854907461        0.0000000000000000     
   0.0000000000000000       -19994691.854908630        0.0000000000000000     
  -7.4738805078110995E-008  -19994691.854908567        0.0000000000000000     
  -1.3020176563342890E-007  -19994691.854908355        0.0000000000000000     
  -1.6638888166595370E-007  -19994691.854907982        0.0000000000000000     
  -1.8330015317568541E-007  -19994691.854907457        0.0000000000000000     
   0.0000000000000000       -19994691.854908627        0.0000000000000000     
  -1.1161471113428510E-007  -19994691.854908563        0.0000000000000000     
  -2.0521142868458732E-007  -19994691.854908340        0.0000000000000000     
  -2.8079015265090653E-007  -19994691.854907975        0.0000000000000000     
  -3.3835088303324290E-007  -19994691.854907453        0.0000000000000000     
   0.0000000000000000       -19994691.854908619        0.0000000000000000     
  -1.4838566227498248E-007  -19994691.854908552        0.0000000000000000     
  -2.8071637478188681E-007  -19994691.854908336        0.0000000000000000     
  -3.9699213752071317E-007  -19994691.854907963        0.0000000000000000     
  -4.9721295049146138E-007  -19994691.854907442        0.0000000000000000     
   1.1536729373744648E-007  -19994691.854907461        0.0000000000000000     
   2.1267467215463626E-007  -19994691.854906786        0.0000000000000000     
   3.6820928946096481E-007  -19994691.854905959        0.0000000000000000     
   5.8197114565643236E-007  -19994691.854904991        0.0000000000000000     
   8.5396024074103861E-007  -19994691.854903869        0.0000000000000000     
  -3.2060760918788948E-008  -19994691.854907461        0.0000000000000000     
   2.9223971959360853E-008  -19994691.854906786        0.0000000000000000     
   1.4979454071517046E-007  -19994691.854905963        0.0000000000000000     
   3.2965094534863985E-007  -19994691.854904994        0.0000000000000000     
   5.6879318585976905E-007  -19994691.854903877        0.0000000000000000     
  -1.8330015317568541E-007  -19994691.854907457        0.0000000000000000     
  -1.6135117702558821E-007  -19994691.854906783        0.0000000000000000     
  -8.0957550078626387E-008  -19994691.854905963        0.0000000000000000     
   5.7880727665200149E-008  -19994691.854904991        0.0000000000000000     
   2.5516365620589136E-007  -19994691.854903881        0.0000000000000000     
  -3.3835088303324290E-007  -19994691.854907453        0.0000000000000000     
  -3.5905077480021090E-007  -19994691.854906779        0.0000000000000000     
  -3.2404698292042560E-007  -19994691.854905959        0.0000000000000000     
  -2.3333950739388671E-007  -19994691.854904994        0.0000000000000000     
  -8.6928348220594366E-008  -19994691.854903881        0.0000000000000000     
  -4.9721295049146138E-007  -19994691.854907442        0.0000000000000000     
  -5.6387482136450734E-007  -19994691.854906771        0.0000000000000000     
  -5.7947375781022726E-007  -19994691.854905952        0.0000000000000000     
  -5.4400975982862082E-007  -19994691.854904991        0.0000000000000000     
  -4.5748282741968823E-007  -19994691.854903881        0.0000000000000000     
   0.0000000000000000       -19994691.854908619        0.0000000000000000     
  -1.4838566227498248E-007  -19994691.854908552        0.0000000000000000     
  -2.8071637478188681E-007  -19994691.854908336        0.0000000000000000     
  -3.9699213752071317E-007  -19994691.854907963        0.0000000000000000     
  -4.9721295049146138E-007  -19994691.854907442        0.0000000000000000     
   0.0000000000000000       -19994691.854908608        0.0000000000000000     
  -1.8497261635916959E-007  -19994691.854908541        0.0000000000000000     
  -3.5670070812788020E-007  -19994691.854908321        0.0000000000000000     
  -5.1518427530613188E-007  -19994691.854907952        0.0000000000000000     
  -6.6042331789392442E-007  -19994691.854907431        0.0000000000000000     
   0.0000000000000000       -19994691.854908593        0.0000000000000000     
  -2.2129653124581308E-007  -19994691.854908526        0.0000000000000000     
  -4.3314853292512013E-007  -19994691.854908306        0.0000000000000000     
  -6.3555600503792089E-007  -19994691.854907934        0.0000000000000000     
  -8.2851894758421578E-007  -19994691.854907412        0.0000000000000000     
   0.0000000000000000       -19994691.854908574        0.0000000000000000     
  -2.5735740693491286E-007  -19994691.854908507        0.0000000000000000     
  -5.1005984917360653E-007  -19994691.854908295        0.0000000000000000     
  -7.5810732671608048E-007  -19994691.854907919        0.0000000000000000     
  -1.0014998395623352E-006  -19994691.854907393        0.0000000000000000     
   0.0000000000000000       -19994691.854908552        0.0000000000000000     
  -2.9315524342646919E-007  -19994691.854908489        0.0000000000000000     
  -5.8743465687333937E-007  -19994691.854908273        0.0000000000000000     
  -8.8283824034061053E-007  -19994691.854907896        0.0000000000000000     
  -1.1793659938282829E-006  -19994691.854907371        0.0000000000000000     
  -4.9721295049146138E-007  -19994691.854907442        0.0000000000000000     
  -5.6387482136450734E-007  -19994691.854906771        0.0000000000000000     
  -5.7947375781022726E-007  -19994691.854905952        0.0000000000000000     
  -5.4400975982862082E-007  -19994691.854904991        0.0000000000000000     
  -4.5748282741968823E-007  -19994691.854903881        0.0000000000000000     
  -6.6042331789392442E-007  -19994691.854907431        0.0000000000000000     
  -7.7672077484266563E-007  -19994691.854906756        0.0000000000000000     
  -8.4837958510376297E-007  -19994691.854905941        0.0000000000000000     
  -8.7539974867721698E-007  -19994691.854904983        0.0000000000000000     
  -8.5778126556302691E-007  -19994691.854903877        0.0000000000000000     
  -8.2851894758421578E-007  -19994691.854907412        0.0000000000000000     
  -9.9848609335887421E-007  -19994691.854906738        0.0000000000000000     
  -1.1319061751567652E-006  -19994691.854905929        0.0000000000000000     
  -1.2287791929778897E-006  -19994691.854904968        0.0000000000000000     
  -1.2891051468222472E-006  -19994691.854903866        0.0000000000000000     
  -1.0014998395623352E-006  -19994691.854907393        0.0000000000000000     
  -1.2291707769131321E-006  -19994691.854906719        0.0000000000000000     
  -1.4300535279692339E-006  -19994691.854905903        0.0000000000000000     
  -1.6041480927306396E-006  -19994691.854904950        0.0000000000000000     
  -1.7514544711973496E-006  -19994691.854903851        0.0000000000000000     
  -1.1793659938282829E-006  -19994691.854907371        0.0000000000000000     
  -1.4687748255054405E-006  -19994691.854906693        0.0000000000000000     
  -1.7428216435411682E-006  -19994691.854905877        0.0000000000000000     
  -2.0015064479354657E-006  -19994691.854904920        0.0000000000000000     
  -2.2448292386883333E-006  -19994691.854903828        0.0000000000000000     
 </DataArray>
 </PointData>
 </Piece>
 <Piece  NumberOfPoints="           200 "  NumberOfCells="          128 ">
 <Points>
 <DataArray  type="Float64" NumberOfComponents="3"  format="ascii" >
   0.0000000000000000        0.0000000000000000        0.0000000000000000     
   1.2500000000000000        0.0000000000000000        0.0000000000000000     
   2.5000000000000000        0.0000000000000000        0.0000000000000000     
   3.7500000000000000        0.0000000000000000        0.0000000000000000     
   5.0000000000000000        0.0000000000000000        0.0000000000000000     
   0.0000000000000000        8.9453124999999994E-002   0.0000000000000000     
   1.2500000000000000       0.14172973632812499        0.0000000000000000     
   2.5000000000000000       0.18703613281250001        0.0000000000000000     
   3.7500000000000000       0.22537231445312503        0.0000000000000000     
   5.0000000000000000       0.25673828125000003        0.0000000000000000     
   0.0000000000000000       0.20781250000000001        0.0000000000000000     
   1.2500000000000000       0.30559082031250001        0.0000000000000000     
   2.5000000000000000       0.39033203124999999        0.0000000000000000     
   3.7500000000000000       0.46203613281250000        0.0000000000000000     
   5.0000000000000000       0.52070312500000004        0.0000000000000000     
   0.0000000000000000       0.35507812500000002        0.0000000000000000     
   1.2500000000000000       0.49158325195312497        0.0000000000000000     
   2.5000000000000000       0.60988769531250009        0.0000000000000000     
   3.7500000000000000       0.70999145507812500        0.0000000000000000     
   5.0000000000000000       0.79189453125000009        0.0000000000000000     
   0.0000000000000000       0.53125000000000000        0.0000000000000000     
   1.2500000000000000       0.69970703125000011        0.0000000000000000     
   2.5000000000000000       0.84570312500000000        0.0000000000000000     
   3.7500000000000000       0.96923828125000000        0.0000000000000000     
   5.0000000000000000        1.0703125000000000        0.0000000000000000     
   5.0000000000000000        0.0000000000000000        0.0000000000000000     
   6.2500000000000000        0.0000000000000000        0.0000000000000000     
   7.5000000000000000        0.0000000000000000        0.0000000000000000     
   8.7500000000000000        0.0000000000000000        0.0000000000000000     
   10.000000000000000        0.0000000000000000        0.0000000000000000     
   5.0000000000000000       0.25673828125000003        0.0000000000000000     
   6.2500000000000000       0.28113403320312497        0.0000000000000000     
   7.5000000000000000       0.29855957031249997        0.0000000000000000     
   8.7500000000000000       0.30901489257812503        0.0000000000000000     
   10.000000000000000       0.31250000000000000        0.0000000000000000     
   5.0000000000000000       0.52070312500000004        0.0000000000000000     
   6.2500000000000000       0.56633300781249996        0.0000000000000000     
   7.5000000000000000       0.59892578124999996        0.0000000000000000     
   8.7500000000000000       0.61848144531250004        0.0000000000000000     
   10.000000000000000       0.62500000000000000        0.0000000000000000     
   5.0000000000000000       0.79189453125000009        0.0000000000000000     
   6.2500000000000000       0.85559692382812491        0.0000000000000000     
   7.5000000000000000       0.90109863281249991        0.0000000000000000     
   8.7500000000000000       0.92839965820312509        0.0000000000000000     
   10.000000000000000       0.93750000000000000        0.0000000000000000     
   5.0000000000000000        1.0703125000000000        0.0000000000000000     
   6.2500000000000000        1.1489257812500000        0.0000000000000000     
   7.5000000000000000        1.2050781250000000        0.0000000000000000     
   8.7500000000000000        1.2387695312500000        0.0000000000000000     