 <VTKFile type="UnstructuredGrid"  version="0.1"   >
 <UnstructuredGrid>
 <Piece  NumberOfPoints="          1600 "  NumberOfCells="         1024 ">
 <Points>
 <DataArray  type="Float64" NumberOfComponents="3"  format="ascii" >
  -10.000000000000000        0.0000000000000000        0.0000000000000000     
  -9.8437500000000000        0.0000000000000000        0.0000000000000000     
  -9.6875000000000000        0.0000000000000000        0.0000000000000000     
  -9.5312500000000000        0.0000000000000000        0.0000000000000000     
  -9.3750000000000000        0.0000000000000000        0.0000000000000000     
  -10.000000000000000       0.15625000000000000        0.0000000000000000     
  -9.8437500000000000       0.15625000000000000        0.0000000000000000     
  -9.6875000000000000       0.15625000000000000        0.0000000000000000     
  -9.5312500000000018       0.15625000000000003        0.0000000000000000     
  -9.3750000000000000       0.15625000000000000        0.0000000000000000     
  -10.000000000000000       0.31250000000000006        0.0000000000000000     
  -9.8437500000000000       0.31250000000000000        0.0000000000000000     
  -9.6875000000000000       0.31250000000000000        0.0000000000000000     
  -9.5312500000000000       0.31250000000000006        0.0000000000000000     
  -9.3750000000000018       0.31250000000000000        0.0000000000000000     
  -10.000000000000000       0.46875000000000000        0.0000000000000000     
  -9.8437499999999982       0.46875000000000000        0.0000000000000000     
  -9.6875000000000000       0.46875000000000000        0.0000000000000000     
  -9.5312500000000000       0.46875000000000000        0.0000000000000000     
  -9.3750000000000000       0.46875000000000000        0.0000000000000000     
  -10.000000000000000       0.62500000000000011        0.0000000000000000     
  -9.8437500000000000       0.62500000000000000        0.0000000000000000     
  -9.6875000000000018       0.62499999999999989        0.0000000000000000     
  -9.5312500000000000       0.62500000000000011        0.0000000000000000     
  -9.3750000000000018       0.62500000000000022        0.0000000000000000     
  -9.3750000000000000        0.0000000000000000        0.0000000000000000     
  -9.2187500000000000        0.0000000000000000        0.0000000000000000     
  -9.0625000000000000        0.0000000000000000        0.0000000000000000     
  -8.9062499999999982        0.0000000000000000        0.0000000000000000     
  -8.7500000000000018        0.0000000000000000        0.0000000000000000     
  -9.3750000000000000       0.15625000000000000        0.0000000000000000     
  -9.2187500000000000       0.15625000000000000        0.0000000000000000     
  -9.0625000000000018       0.15625000000000000        0.0000000000000000     
  -8.9062500000000018       0.15625000000000003        0.0000000000000000     
  -8.7500000000000000       0.15625000000000000        0.0000000000000000     
  -9.3750000000000018       0.31250000000000000        0.0000000000000000     
  -9.2187500000000000       0.31250000000000000        0.0000000000000000     
  -9.0625000000000000       0.31250000000000000        0.0000000000000000     
  -8.9062500000000000       0.31250000000000006        0.0000000000000000     
  -8.7500000000000000       0.31250000000000000        0.0000000000000000     
  -9.3750000000000000       0.46875000000000000        0.0000000000000000     
  -9.2187500000000000       0.46875000000000000        0.0000000000000000     
  -9.0625000000000018       0.46875000000000000        0.0000000000000000     
  -8.9062500000000000       0.46875000000000000        0.0000000000000000     
  -8.7500000000000018       0.46875000000000006        0.0000000000000000     
  -9.3750000000000018       0.62500000000000022        0.0000000000000000     
  -9.2187500000000036       0.62500000000000011        0.0000000000000000     
  -9.0625000000000000       0.62499999999999989        0.0000000000000000     
  -8.9062500000000000       0.62500000000000011        0.0000000000000000     
  -8.7500000000000018       0.62500000000000011        0.0000000000000000     
  -8.7500000000000018        0.0000000000000000        0.0000000000000000     
  -8.5937500000000000        0.0000000000000000        0.0000000000000000     
  -8.4375000000000018        0.0000000000000000        0.0000000000000000     
  -8.2812500000000000        0.0000000000000000        0.0000000000000000     
  -8.1250000000000000        0.0000000000000000        0.0000000000000000     
  -8.7500000000000000       0.15625000000000000        0.0000000000000000     
  -8.5937500000000000       0.15625000000000000        0.0000000000000000     
  -8.4375000000000018       0.15625000000000003        0.0000000000000000     
  -8.2812500000000000       0.15625000000000003        0.0000000000000000     
  -8.1250000000000000       0.15625000000000000        0.0000000000000000     
  -8.7500000000000000       0.31250000000000000        0.0000000000000000     
  -8.5937500000000000       0.31250000000000000        0.0000000000000000     
  -8.4375000000000018       0.31250000000000011        0.0000000000000000     
  -8.2812500000000000       0.31249999999999989        0.0000000000000000     
  -8.1250000000000000       0.31250000000000000        0.0000000000000000     
  -8.7500000000000018       0.46875000000000006        0.0000000000000000     
  -8.5937500000000000       0.46875000000000000        0.0000000000000000     
  -8.4375000000000000       0.46874999999999994        0.0000000000000000     
  -8.2812500000000000       0.46875000000000000        0.0000000000000000     
  -8.1250000000000018       0.46875000000000006        0.0000000000000000     
  -8.7500000000000018       0.62500000000000011        0.0000000000000000     
  -8.5937500000000018       0.62500000000000022        0.0000000000000000     
  -8.4375000000000000       0.62500000000000000        0.0000000000000000     
  -8.2812500000000000       0.62500000000000000        0.0000000000000000     
  -8.1250000000000018       0.62500000000000011        0.0000000000000000     
  -8.1250000000000000        0.0000000000000000        0.0000000000000000     
  -7.9687499999999991        0.0000000000000000        0.0000000000000000     
  -7.8125000000000009        0.0000000000000000        0.0000000000000000     
  -7.6562500000000009        0.0000000000000000        0.0000000000000000     
  -7.5000000000000009        0.0000000000000000        0.0000000000000000     
  -8.1250000000000000       0.15625000000000000        0.0000000000000000     
  -7.9687500000000000       0.15625000000000000        0.0000000000000000     
  -7.8125000000000009       0.15625000000000003        0.0000000000000000     
  -7.6562500000000000       0.15625000000000003        0.0000000000000000     
  -7.5000000000000000       0.15625000000000000        0.0000000000000000     
  -8.1250000000000000       0.31250000000000000        0.0000000000000000     
  -7.9687500000000000       0.31250000000000000        0.0000000000000000     
  -7.8125000000000009       0.31250000000000011        0.0000000000000000     
  -7.6562499999999982       0.31249999999999989        0.0000000000000000     
  -7.5000000000000018       0.31250000000000000        0.0000000000000000     
  -8.1250000000000018       0.46875000000000006        0.0000000000000000     
  -7.9687500000000018       0.46875000000000000        0.0000000000000000     
  -7.8125000000000009       0.46874999999999994        0.0000000000000000     
  -7.6562500000000000       0.46875000000000000        0.0000000000000000     
  -7.5000000000000009       0.46875000000000006        0.0000000000000000     
  -8.1250000000000018       0.62500000000000011        0.0000000000000000     
  -7.9687500000000009       0.62500000000000022        0.0000000000000000     
  -7.8125000000000009       0.62500000000000000        0.0000000000000000     
  -7.6562500000000009       0.62500000000000000        0.0000000000000000     
  -7.5000000000000000       0.62500000000000011        0.0000000000000000     
  -7.5000000000000009        0.0000000000000000        0.0000000000000000     
  -7.3437500000000000        0.0000000000000000        0.0000000000000000     
  -7.1875000000000009        0.0000000000000000        0.0000000000000000     
  -7.0312500000000009        0.0000000000000000        0.0000000000000000     
  -6.8750000000000009        0.0000000000000000        0.0000000000000000     
  -7.5000000000000000       0.15625000000000000        0.0000000000000000     
  -7.3437500000000000       0.15625000000000000        0.0000000000000000     
  -7.1875000000000000       0.15625000000000003        0.0000000000000000     
  -7.0312500000000000       0.15625000000000003        0.0000000000000000     
  -6.8750000000000000       0.15625000000000000        0.0000000000000000     
  -7.5000000000000018       0.31250000000000000        0.0000000000000000     
  -7.3437500000000000       0.31250000000000000        0.0000000000000000     
  -7.1875000000000018       0.31250000000000011        0.0000000000000000     
  -7.0312499999999973       0.31249999999999989        0.0000000000000000     
  -6.8750000000000000       0.31250000000000000        0.0000000000000000     
  -7.5000000000000009       0.46875000000000006        0.0000000000000000     
  -7.3437500000000000       0.46875000000000000        0.0000000000000000     
  -7.1874999999999991       0.46874999999999994        0.0000000000000000     
  -7.0312500000000000       0.46875000000000000        0.0000000000000000     
  -6.8750000000000009       0.46875000000000006        0.0000000000000000     
  -7.5000000000000000       0.62500000000000011        0.0000000000000000     
  -7.3437500000000018       0.62500000000000022        0.0000000000000000     
  -7.1874999999999991       0.62500000000000000        0.0000000000000000     
[...]
 <PointData>
 <DataArray  type="Float64" Name="disp" NumberOfComponents="3" format="ascii">
   0.0000000000000000        0.0000000000000000        0.0000000000000000     
   7.9366768229180862E-008   4.7199587613425347E-008   0.0000000000000000     
   1.4800382198767572E-007   8.3747901926130765E-008   0.0000000000000000     
   2.0955964047359512E-007   1.1393916370252715E-007   0.0000000000000000     
   2.6768270288504983E-007   1.4206759370702542E-007   0.0000000000000000     
   0.0000000000000000        0.0000000000000000        0.0000000000000000     
   6.1062674178004613E-008   3.3071213191374254E-008   0.0000000000000000     
   1.2142164791396655E-007   6.4326433652210365E-008   0.0000000000000000     
   1.8079818424183083E-007   9.4600213671454418E-008   0.0000000000000000     
   2.3891354619554233E-007   1.2472710553805241E-007   0.0000000000000000     
   0.0000000000000000        0.0000000000000000        0.0000000000000000     
   5.0273375164656766E-008   2.3669410391131598E-008   0.0000000000000000     
   1.0375192609311428E-007   5.0184713463058956E-008   0.0000000000000000     
   1.5882468046225912E-007   7.8806448633772175E-008   0.0000000000000000     
   2.1388066594897782E-007   1.0879515532126129E-007   0.0000000000000000     
   0.0000000000000000        0.0000000000000000        0.0000000000000000     
   4.4359638287013361E-008   1.7656893484704016E-008   0.0000000000000000     
   9.2053007952830297E-008   4.0032337965726360E-008   0.0000000000000000     
   1.4169996595290535E-007   6.6028313089429961E-008   0.0000000000000000     
   1.9192036924269318E-007   9.4546798502177725E-008   0.0000000000000000     
   0.0000000000000000        0.0000000000000000        0.0000000000000000     
   4.0682230642950457E-008   1.3696376744098138E-008   0.0000000000000000     
   8.3383244920825926E-008   3.2578903767262371E-008   0.0000000000000000     
   1.2748487753179477E-007   5.5736251538377232E-008   0.0000000000000000     
   1.7236896317402538E-007   8.2257090526327270E-008   0.0000000000000000     
   2.6768270288504983E-007   1.4206759370702542E-007   0.0000000000000000     
   3.2538979745194113E-007   1.7174114631548452E-007   0.0000000000000000     
   3.8317094853133430E-007   2.0382271034955582E-007   0.0000000000000000     
   4.4088448951208504E-007   2.3848890824233853E-007   0.0000000000000000     
   4.9838875378304928E-007   2.7591636242693201E-007   0.0000000000000000     
   2.3891354619554233E-007   1.2472710553805241E-007   0.0000000000000000     
   2.9559339390390744E-007   1.5551711778515815E-007   0.0000000000000000     
   3.5108097587517798E-007   1.8768208392275611E-007   0.0000000000000000     
   4.0572393771246673E-007   2.2190929370503829E-007   0.0000000000000000     
   4.5986992501888708E-007   2.5888603688619698E-007   0.0000000000000000     
   2.1388066594897782E-007   1.0879515532126129E-007   0.0000000000000000     
   2.6763596254445610E-007   1.3965346602583835E-007   0.0000000000000000     
   3.2011485949707691E-007   1.7185238557710320E-007   0.0000000000000000     
   3.7166869836952186E-007   2.0610501188697742E-007   0.0000000000000000     
   4.2264882072447326E-007   2.4312444286738285E-007   0.0000000000000000     
   1.9192036924269318E-007   9.4546798502177725E-008   0.0000000000000000     
   2.4158054620782387E-007   1.2475068626600297E-007   0.0000000000000000     
   2.9053271095462993E-007   1.5684651810562099E-007   0.0000000000000000     
   3.3887554901961911E-007   1.9130174816141731E-007   0.0000000000000000     
   3.8670774593929953E-007   2.2858383057377773E-007   0.0000000000000000     
   1.7236896317402538E-007   8.2257090526327270E-008   0.0000000000000000     
   2.1749018772824736E-007   1.1140927373412983E-007   0.0000000000000000     
   2.6259464180543587E-007   1.4317738430133340E-007   0.0000000000000000     
   3.0750126719912729E-007   1.7772518790161954E-007   0.0000000000000000     
   3.5202900570285825E-007   2.1521645020866959E-007   0.0000000000000000     
   4.9838875378304928E-007   2.7591636242693201E-007   0.0000000000000000     
   5.5556466264442442E-007   3.1627251486108795E-007   0.0000000000000000     
   6.1238348904177607E-007   3.5968808560116782E-007   0.0000000000000000     
   6.6883909383201113E-007   4.0628461422818498E-007   0.0000000000000000     
   7.2492533787203656E-007   4.5618364032315341E-007   0.0000000000000000     
   4.5986992501888708E-007   2.5888603688619698E-007   0.0000000000000000     
   5.1379344186241156E-007   2.9917535240929806E-007   0.0000000000000000     
   5.6747642617045151E-007   3.4284327597290346E-007   0.0000000000000000     
   6.2082767433527762E-007   3.8983159246444844E-007   0.0000000000000000     
   6.7375598274916136E-007   4.4008208677136882E-007   0.0000000000000000     
   4.2264882072447326E-007   2.4312444286738285E-007   0.0000000000000000     
   4.7333635121867143E-007   2.8349314887933570E-007   0.0000000000000000     
   5.2373154688509261E-007   3.2727109008023099E-007   0.0000000000000000     
   5.7376444785077091E-007   3.7438759907655762E-007   0.0000000000000000     
   6.2336509424274137E-007   4.2477200847480568E-007   0.0000000000000000     
   3.8670774593929953E-007   2.2858383057377773E-007   0.0000000000000000     
   4.3411152039463394E-007   2.6908267462018724E-007   0.0000000000000000     
   4.8110322364440443E-007   3.1287801012652969E-007   0.0000000000000000     
   5.2768274009184866E-007   3.5997202205578839E-007   0.0000000000000000     
   5.7384995414020350E-007   4.1036689537094659E-007   0.0000000000000000     
   3.5202900570285825E-007   2.1521645020866959E-007   0.0000000000000000     
   3.9603707907172859E-007   2.5580069998083900E-007   0.0000000000000000     
   4.3954582890709266E-007   2.9957051831517906E-007   0.0000000000000000     
   4.8261587677186866E-007   3.4660424939341557E-007   0.0000000000000000     
   5.2530784422897487E-007   3.9698023739727403E-007   0.0000000000000000     
   7.2492533787203656E-007   4.5618364032315341E-007   0.0000000000000000     
   7.8063666470127870E-007   5.0948313718841812E-007   0.0000000000000000     
   8.3596984858924251E-007   5.6618681301165062E-007   0.0000000000000000     
   8.9092224648795179E-007   6.2627480970185312E-007   0.0000000000000000     
   9.4549121534943052E-007   6.8972726916802843E-007   0.0000000000000000     
   6.7375598274916136E-007   4.4008208677136882E-007   0.0000000000000000     
   7.2619262189839358E-007   4.9355666234229951E-007   0.0000000000000000     
   7.7815875864534892E-007   5.5029769687067200E-007   0.0000000000000000     
   8.2969803394642214E-007   6.1036768661111702E-007   0.0000000000000000     
   8.8085408875800789E-007   6.7382912781826538E-007   0.0000000000000000     
   6.2336509424274137E-007   4.2477200847480568E-007   0.0000000000000000     
   6.7248140754452193E-007   4.7837615174976798E-007   0.0000000000000000     
   7.2113283466556806E-007   5.3524186584945304E-007   0.0000000000000000     
   7.6935670387181783E-007   5.9543348859017304E-007   0.0000000000000000     
   8.1719034342921108E-007   6.5901535778824047E-007   0.0000000000000000     
   5.7384995414020350E-007   4.1036689537094659E-007   0.0000000000000000     
   6.1960567569396468E-007   4.6406851873023417E-007   0.0000000000000000     
   6.6495441666266237E-007   5.2109759557286706E-007   0.0000000000000000     
   7.0990161445708587E-007   5.8147853303330810E-007   0.0000000000000000     
   7.5445270648802354E-007   6.4523573824601958E-007   0.0000000000000000     
   5.2530784422897487E-007   3.9698023739727403E-007   0.0000000000000000     
   5.6766808040102237E-007   4.5076067660310859E-007   0.0000000000000000     
   6.0968584464939535E-007   5.0794316166578760E-007   0.0000000000000000     
   6.5133612389517181E-007   5.6850913733480845E-007   0.0000000000000000     
   6.9259390505942959E-007   6.3244004835966817E-007   0.0000000000000000     
   9.4549121534943052E-007   6.8972726916802843E-007   0.0000000000000000     
   9.9967021370784615E-007   7.5652600571869917E-007   0.0000000000000000     
   1.0534371064259408E-006   8.2665952326046897E-007   0.0000000000000000     
   1.1067658599485988E-006   9.0011799809946065E-007   0.0000000000000000     
   1.1596304407207058E-006   9.7689160654179738E-007   0.0000000000000000     
   8.8085408875800789E-007   6.7382912781826538E-007   0.0000000000000000     
   9.3165783341216977E-007   7.4072581411713661E-007   0.0000000000000000     
   9.8208925574364493E-007   8.1102672861430474E-007   0.0000000000000000     
   1.0321156129628390E-006   8.8468215178673185E-007   0.0000000000000000     
   1.0817041622801587E-006   9.6164236411138057E-007   0.0000000000000000     
   8.1719034342921108E-007   6.5901535778824047E-007   0.0000000000000000     
   8.6466161553571599E-007   7.2603289890613766E-007   0.0000000000000000     
   9.1176051811742326E-007   7.9645588799102694E-007   0.0000000000000000     
   9.5846758303245243E-007   8.7023518873624083E-007   0.0000000000000000     
   1.0047633421389247E-006   9.4732166483511259E-007   0.0000000000000000     
   7.5445270648802354E-007   6.4523573824601958E-007   0.0000000000000000     
   7.9861250681733440E-007   7.1238480036318038E-007   0.0000000000000000     
   8.4238333611115400E-007   7.8290603660783448E-007   0.0000000000000000     
   8.8576689168668910E-007   8.5677094622074299E-007   0.0000000000000000     
   9.2876487086114457E-007   9.3395102844266534E-007   0.0000000000000000     
   6.9259390505942959E-007   6.3244004835966817E-007   0.0000000000000000     
   7.3344145399587311E-007   6.9971905876574335E-007   0.0000000000000000     
   7.7389015228871518E-007   7.7033620968192676E-007   0.0000000000000000     
   8.1395866045479711E-007   8.4428326151299170E-007   0.0000000000000000     
   8.5366563901095854E-007   9.2155197466371115E-007   0.0000000000000000     
   1.1596304407207058E-006   9.7689160654179738E-007   0.0000000000000000     
   1.2120105748233154E-006   1.0569661730365594E-006   0.0000000000000000     
   1.2639090268821573E-006   1.1403101146046536E-006   0.0000000000000000     
   1.3153343211591304E-006   1.2268874964099432E-006   0.0000000000000000     
   1.3662949819161327E-006   1.3166623836162917E-006   0.0000000000000000     
   1.0817041622801587E-006   9.6164236411138057E-007   0.0000000000000000     
   1.1308292947480419E-006   1.0418632130680335E-006   0.0000000000000000     
   1.1794939367870602E-006   1.1253228141477533E-006   0.0000000000000000     
   1.2277081486598175E-006   1.2120048498444219E-006   0.0000000000000000     
   1.2754819906289184E-006   1.3018930026519227E-006   0.0000000000000000     
   1.0047633421389247E-006   9.4732166483511259E-007   0.0000000000000000     
   1.0506323193920293E-006   1.0276714843029630E-006   0.0000000000000000     
   1.0960750071352375E-006   1.1112620324430702E-006   0.0000000000000000     
   1.1410958898090890E-006   1.1980759988807012E-006   0.0000000000000000     
   1.1856994518541260E-006   1.2880960732411241E-006   0.0000000000000000     
   9.2876487086114457E-007   9.3395102844266534E-007   0.0000000000000000     
   9.7137811510785339E-007   1.0144178265864160E-006   0.0000000000000000     
   1.0136040425246562E-006   1.0981430602530238E-006   0.0000000000000000     
   1.0554392153655215E-006   1.1850984931155728E-006   0.0000000000000000     
   1.0968801958844153E-006   1.2752558888471445E-006   0.0000000000000000     
   8.5366563901095854E-007   9.2155197466371115E-007   0.0000000000000000     
   8.9302514824809036E-007   1.0021290797634611E-006   0.0000000000000000     
   9.3203284755328623E-007   1.0859811883400338E-006   0.0000000000000000     
   9.7067979608769084E-007   1.1730698821458263E-006   0.0000000000000000     
   1.0089570530124484E-006   1.2633567429332347E-006   0.0000000000000000     
   1.3662949819161327E-006   1.3166623836162917E-006   0.0000000000000000     
   1.4167962541544995E-006   1.4096008326860019E-006   0.0000000000000000     
   1.4668302658333138E-006   1.5056768652751365E-006   0.0000000000000000     
   1.5163858656510948E-006   1.6048664943381964E-006   0.0000000000000000     
   1.5654519023063618E-006   1.7071457328296828E-006   0.0000000000000000     
   1.2754819906289184E-006   1.3018930026519227E-006   0.0000000000000000     
   1.3228224130464900E-006   1.3949677168253849E-006   0.0000000000000000     
   1.3697239266227536E-006   1.4911964836649247E-006   0.0000000000000000     
   1.4161779321574536E-006   1.5905435562319050E-006   0.0000000000000000     
   1.4621758304503345E-006   1.6929731875876896E-006   0.0000000000000000     
   1.1856994518541260E-006   1.2880960732411241E-006   0.0000000000000000     
   1.2298888209553047E-006   1.3813019531136149E-006   0.0000000000000000     
   1.2736616977752506E-006   1.4776613679434947E-006   0.0000000000000000     
   1.3170144262210039E-006   1.5771390551400929E-006   0.0000000000000000     
   1.3599433501996084E-006   1.6796997521127411E-006   0.0000000000000000     
   1.0968801958844153E-006   1.2752558888471445E-006   0.0000000000000000     
   1.1379243885194433E-006   1.3685868876926833E-006   0.0000000000000000     
   1.1785725664452567E-006   1.4650626361845733E-006   0.0000000000000000     
   1.2188263450206437E-006   1.5646541574270601E-006   0.0000000000000000     
   1.2586873396043928E-006   1.6673324745243883E-006   0.0000000000000000     
   1.0089570530124484E-006   1.2633567429332347E-006   0.0000000000000000     
   1.0468580263774064E-006   1.3568058667045806E-006   0.0000000000000000     
   1.0843855197872248E-006   1.4533914064618872E-006   0.0000000000000000     
   1.1215446857352676E-006   1.5530900294571044E-006   0.0000000000000000     
   1.1583406767148974E-006   1.6558784029421817E-006   0.0000000000000000     
   1.5654519023063618E-006   1.7071457328296828E-006   0.0000000000000000     
   1.6140206928112467E-006   1.8124880104229218E-006   0.0000000000000000     
   1.6620984274323354E-006   1.9208564236665397E-006   0.0000000000000000     
   1.7096947647498247E-006   2.0322114858279851E-006   0.0000000000000000     
   1.7568193633439137E-006   2.1465137101747091E-006   0.0000000000000000     
   1.4621758304503345E-006   1.6929731875876896E-006   0.0000000000000000     
   1.5077113284751656E-006   1.7984510870713377E-006   0.0000000000000000     
   1.5527873579018105E-006   1.9069487891326934E-006   0.0000000000000000     
   1.5974091565741595E-006   2.0184392844992986E-006   0.0000000000000000     
   1.6415819623361002E-006   2.1328955638986935E-006   0.0000000000000000     
   1.3599433501996084E-006   1.6796997521127411E-006   0.0000000000000000     
   1.4024455589890183E-006   1.7853095332282850E-006   0.0000000000000000     
   1.4445211233508476E-006   1.8939398206836318E-006   0.0000000000000000     
   1.4861708594176253E-006   2.0055633736332049E-006   0.0000000000000000     
   1.5273955833218797E-006   2.1201529512314278E-006   0.0000000000000000     
   1.2586873396043928E-006   1.6673324745243883E-006   0.0000000000000000     
   1.2981564483789732E-006   1.7730678711643594E-006   0.0000000000000000     
   1.3372317008215820E-006   1.8818276733689958E-006   0.0000000000000000     
   1.3759104092330946E-006   1.9935784677438755E-006   0.0000000000000000     
   1.4141898859143888E-006   2.1082868408945768E-006   0.0000000000000000     
   1.1583406767148974E-006   1.6558784029421817E-006   0.0000000000000000     
   1.1947770606712001E-006   1.7617306231501569E-006   0.0000000000000000     
   1.2308510673561488E-006   1.8706105022384285E-006   0.0000000000000000     
   1.2665583419734387E-006   1.9824792813454821E-006   0.0000000000000000     
   1.3018945297267646E-006   2.0972982016098057E-006   0.0000000000000000     
   0.0000000000000000        0.0000000000000000        0.0000000000000000     
   4.0682230642950457E-008   1.3696376744098138E-008   0.0000000000000000     
   8.3383244920825926E-008   3.2578903767262371E-008   0.0000000000000000     
   1.2748487753179477E-007   5.5736251538377232E-008   0.0000000000000000     
   1.7236896317402538E-007   8.2257090526327270E-008   0.0000000000000000     
   0.0000000000000000        0.0000000000000000        0.0000000000000000     
   3.7071952038652847E-008   1.0655396814750921E-008   0.0000000000000000     
   7.5304275243326125E-008   2.6710521275213260E-008   0.0000000000000000     
   1.1453803072693263E-007   4.7434094377824204E-008   0.0000000000000000     
   1.5461427960238507E-007   7.2094837119020903E-008   0.0000000000000000     
   0.0000000000000000        0.0000000000000000        0.0000000000000000     
   3.3239733113540289E-008   8.2207798358206136E-009   0.0000000000000000     
   6.7390884440609956E-008   2.2019356099111161E-008   0.0000000000000000     
   1.0240915590624429E-007   4.0759215594023849E-008   0.0000000000000000     
   1.3825024943547855E-007   6.3803845124710898E-008   0.0000000000000000     
   0.0000000000000000        0.0000000000000000        0.0000000000000000     
   2.9366537215341324E-008   6.2841743198958059E-009   0.0000000000000000     
   5.9721144851470065E-008   1.8274087648984653E-008   0.0000000000000000     
   9.0945762147635271E-008   3.5382375070489873E-008   0.0000000000000000     
   1.2292232834308603E-007   5.7021671667634807E-008   0.0000000000000000     
   0.0000000000000000        0.0000000000000000        0.0000000000000000     
   2.5633327691784504E-008   4.7372287795650735E-009   0.0000000000000000     
   5.2373128814699062E-008   1.5243395334862342E-008   0.0000000000000000     
   7.9995358529010971E-008   3.0974332690736009E-008   0.0000000000000000     
   1.0827597199498747E-007   5.1385873872030256E-008   0.0000000000000000     
   1.7236896317402538E-007   8.2257090526327270E-008   0.0000000000000000     
   2.1749018772824736E-007   1.1140927373412983E-007   0.0000000000000000     
   2.6259464180543587E-007   1.4317738430133340E-007   0.0000000000000000     
   3.0750126719912729E-007   1.7772518790161954E-007   0.0000000000000000     
   3.5202900570285825E-007   2.1521645020866959E-007   0.0000000000000000     
   1.5461427960238507E-007   7.2094837119020903E-008   0.0000000000000000     
   1.9534930295315601E-007   1.0007873248223562E-007   0.0000000000000000     
   2.3646026174495712E-007   1.3124081139888090E-007   0.0000000000000000     
   2.7763953691406009E-007   1.6555336678736435E-007   0.0000000000000000     
   3.1857950939673621E-007   2.0298869156609365E-007   0.0000000000000000     
   1.3825024943547855E-007   6.3803845124710898E-008   0.0000000000000000     
   1.7482779978275079E-007   9.0604601856493635E-008   0.0000000000000000     
   2.1188717302011035E-007   1.2096432439937022E-007   0.0000000000000000     
   2.4913166804900919E-007   1.5477372172450788E-007   0.0000000000000000     
   2.8626458377089964E-007   1.9192350280307388E-007   0.0000000000000000     
   1.2292232834308603E-007   5.7021671667634807E-008   0.0000000000000000     
   1.5551695913042580E-007   8.2681430026616259E-008   0.0000000000000000     
   1.8853247601567584E-007   1.1215837274552496E-007   0.0000000000000000     
   2.2175587695821189E-007   1.4532603992542521E-007   0.0000000000000000     
   2.5497415991740980E-007   1.8205797166738131E-007   0.0000000000000000     
   1.0827597199498747E-007   5.1385873872030256E-008   0.0000000000000000     
   1.3700806190957467E-007   7.6003765162315671E-008   0.0000000000000000     
   1.6605327111643372E-007   1.0463340588006850E-007   0.0000000000000000     
   1.9529037999590470E-007   1.3715010860249139E-007   0.0000000000000000     
   2.2459816892832745E-007   1.7342918590678696E-007   0.0000000000000000     
   3.5202900570285825E-007   2.1521645020866959E-007   0.0000000000000000     
   3.9603707907172859E-007   2.5580069998083900E-007   0.0000000000000000     