 <VTKFile type="UnstructuredGrid"  version="0.1"   >
 <UnstructuredGrid>
 <Piece  NumberOfPoints="           200 "  NumberOfCells="          128 ">
 <Points>
 <DataArray  type="Float64" NumberOfComponents="3"  format="ascii" >
  -10.000000000000000        0.0000000000000000        0.0000000000000000     
  -8.7500000000000000        0.0000000000000000        0.0000000000000000     
  -7.5000000000000000        0.0000000000000000        0.0000000000000000     
  -6.2500000000000000        0.0000000000000000        0.0000000000000000     
  -5.0000000000000000        0.0000000000000000        0.0000000000000000     
  -10.000000000000000       0.31250000000000000        0.0000000000000000     
  -8.7500000000000000       0.30901489257812498        0.0000000000000000     
  -7.5000000000000000       0.29855957031250002        0.0000000000000000     
  -6.2500000000000000       0.28113403320312502        0.0000000000000000     
  -5.0000000000000000       0.25673828124999998        0.0000000000000000     
  -10.000000000000000       0.62500000000000000        0.0000000000000000     
  -8.7500000000000000       0.61848144531250004        0.0000000000000000     
  -7.5000000000000000       0.59892578124999996        0.0000000000000000     
  -6.2500000000000000       0.56633300781249996        0.0000000000000000     
  -5.0000000000000000       0.52070312500000004        0.0000000000000000     
  -10.000000000000000       0.93750000000000000        0.0000000000000000     
  -8.7500000000000000       0.92839965820312509        0.0000000000000000     
  -7.5000000000000000       0.90109863281249991        0.0000000000000000     
  -6.2500000000000000       0.85559692382812502        0.0000000000000000     
  -5.0000000000000000       0.79189453125000009        0.0000000000000000     
  -10.000000000000000        1.2500000000000000        0.0000000000000000     
  -8.7500000000000000        1.2387695312500000        0.0000000000000000     
  -7.5000000000000000        1.2050781250000000        0.0000000000000000     
  -6.2500000000000000        1.1489257812500000        0.0000000000000000     
  -5.0000000000000000        1.0703125000000000        0.0000000000000000     
  -5.0000000000000000        0.0000000000000000        0.0000000000000000     
  -3.7500000000000000        0.0000000000000000        0.0000000000000000     
  -2.5000000000000000        0.0000000000000000        0.0000000000000000     
  -1.2500000000000000        0.0000000000000000        0.0000000000000000     
   0.0000000000000000        0.0000000000000000        0.0000000000000000     
  -5.0000000000000000       0.25673828124999998        0.0000000000000000     
  -3.7500000000000000       0.22537231445312500        0.0000000000000000     
  -2.5000000000000000       0.18703613281250001        0.0000000000000000     
  -1.2500000000000000       0.14172973632812502        0.0000000000000000     
   0.0000000000000000        8.9453124999999994E-002   0.0000000000000000     
  -5.0000000000000000       0.52070312500000004        0.0000000000000000     
  -3.7500000000000000       0.46203613281250000        0.0000000000000000     
  -2.5000000000000000       0.39033203124999999        0.0000000000000000     
  -1.2500000000000000       0.30559082031250001        0.0000000000000000     
   0.0000000000000000       0.20781250000000001        0.0000000000000000     
  -5.0000000000000000       0.79189453125000009        0.0000000000000000     
  -3.7500000000000000       0.70999145507812500        0.0000000000000000     
  -2.5000000000000000       0.60988769531249998        0.0000000000000000     
  -1.2500000000000000       0.49158325195312497        0.0000000000000000     
   0.0000000000000000       0.35507812500000002        0.0000000000000000     
  -5.0000000000000000        1.0703125000000000        0.0000000000000000     
  -3.7500000000000000       0.96923828125000000        0.0000000000000000     
  -2.5000000000000000       0.84570312500000000        0.0000000000000000     
  -1.2500000000000000       0.69970703125000011        0.0000000000000000     
   0.0000000000000000       0.53125000000000000        0.0000000000000000     
  -10.000000000000000        1.2500000000000000        0.0000000000000000     
  -8.7500000000000000        1.2387695312500000        0.0000000000000000     
  -7.5000000000000000        1.2050781250000000        0.0000000000000000     
  -6.2500000000000000        1.1489257812500000        0.0000000000000000     
  -5.0000000000000000        1.0703125000000000        0.0000000000000000     
  -10.000000000000000        1.5625000000000000        0.0000000000000000     
  -8.7500000000000000        1.5495910644531250        0.0000000000000000     
  -7.5000000000000000        1.5108642578125000        0.0000000000000000     
  -6.2500000000000000        1.4463195800781252        0.0000000000000000     
  -5.0000000000000000        1.3559570312500000        0.0000000000000000     
  -10.000000000000000        1.8750000000000000        0.0000000000000000     
  -8.7500000000000000        1.8608642578124999        0.0000000000000000     
  -7.5000000000000000        1.8184570312500001        0.0000000000000000     
  -6.2500000000000000        1.7477783203125001        0.0000000000000000     
  -5.0000000000000000        1.6488281249999999        0.0000000000000000     
  -10.000000000000000        2.1875000000000000        0.0000000000000000     
  -8.7500000000000000        2.1725891113281248        0.0000000000000000     
  -7.5000000000000000        2.1278564453125002        0.0000000000000000     
  -6.2500000000000000        2.0533020019531252        0.0000000000000000     
  -5.0000000000000000        1.9489257812500000        0.0000000000000000     
  -10.000000000000000        2.5000000000000000        0.0000000000000000     
  -8.7500000000000000        2.4847656249999996        0.0000000000000000     
  -7.5000000000000000        2.4390625000000004        0.0000000000000000     
  -6.2500000000000000        2.3628906250000004        0.0000000000000000     
  -5.0000000000000000        2.2562499999999996        0.0000000000000000     
  -5.0000000000000000        1.0703125000000000        0.0000000000000000     
  -3.7500000000000000       0.96923828125000000        0.0000000000000000     
  -2.5000000000000000       0.84570312500000000        0.0000000000000000     
  -1.2500000000000000       0.69970703125000011        0.0000000000000000     
   0.0000000000000000       0.53125000000000000        0.0000000000000000     
  -5.0000000000000000        1.3559570312500000        0.0000000000000000     
  -3.7500000000000000        1.2397766113281250        0.0000000000000000     
  -2.5000000000000000        1.0977783203125000        0.0000000000000000     
  -1.2500000000000000       0.92996215820312489        0.0000000000000000     
   0.0000000000000000       0.73632812500000000        0.0000000000000000     
  -5.0000000000000000        1.6488281249999999        0.0000000000000000     
  -3.7500000000000000        1.5216064453125000        0.0000000000000000     
  -2.5000000000000000        1.3661132812499999        0.0000000000000000     
  -1.2500000000000000        1.1823486328125001        0.0000000000000000     
   0.0000000000000000       0.97031250000000002        0.0000000000000000     
  -5.0000000000000000        1.9489257812500000        0.0000000000000000     
  -3.7500000000000000        1.8147277832031250        0.0000000000000000     
  -2.5000000000000000        1.6507080078125000        0.0000000000000000     
  -1.2500000000000000        1.4568664550781250        0.0000000000000000     
   0.0000000000000000        1.2332031250000000        0.0000000000000000     
  -5.0000000000000000        2.2562499999999996        0.0000000000000000     
  -3.7500000000000000        2.1191406250000000        0.0000000000000000     
  -2.5000000000000000        1.9515624999999999        0.0000000000000000     
  -1.2500000000000000        1.7535156250000001        0.0000000000000000     
   0.0000000000000000        1.5250000000000001        0.0000000000000000     
  -10.000000000000000        2.5000000000000000        0.0000000000000000     
  -8.7500000000000000        2.4847656249999996        0.0000000000000000     
  -7.5000000000000000        2.4390625000000004        0.0000000000000000     
  -6.2500000000000000        2.3628906250000004        0.0000000000000000     
  -5.0000000000000000        2.2562499999999996        0.0000000000000000     
  -10.000000000000000        2.8125000000000000        0.0000000000000000     
  -8.7500000000000000        2.7974182128906246        0.0000000000000000     
  -7.5000000000000000        2.7521728515625004        0.0000000000000000     
  -6.2500000000000000        2.6767639160156254        0.0000000000000000     
  -5.0000000000000000        2.5711914062499996        0.0000000000000000     
  -10.000000000000000        3.1250000000000000        0.0000000000000000     
  -8.7500000000000000        3.1105712890624999        0.0000000000000000     
  -7.5000000000000000        3.0672851562500001        0.0000000000000000     
  -6.2500000000000000        2.9951416015625001        0.0000000000000000     
  -5.0000000000000000        2.8941406249999999        0.0000000000000000     
  -10.000000000000000        3.4375000000000000        0.0000000000000000     
  -8.7500000000000000        3.4242248535156250        0.0000000000000000     
  -7.5000000000000000        3.3843994140625000        0.0000000000000000     
  -6.2500000000000000        3.3180236816406250        0.0000000000000000     
  -5.0000000000000000        3.2250976562500000        0.0000000000000000     
  -10.000000000000000        3.7500000000000000        0.0000000000000000     
  -8.7500000000000000        3.7383789062499999        0.0000000000000000     
  -7.5000000000000000        3.7035156250000001        0.0000000000000000     
[...]
 <PointData>
 <DataArray  type="Float64" Name="disp" NumberOfComponents="3" format="ascii">
   0.0000000000000000       -1563328232703.3604        0.0000000000000000     
   94374446452.458450       -1544831342553.2776        0.0000000000000000     
   188112530589.25443       -1503161234844.1931        0.0000000000000000     
   281214252410.38794       -1438317909576.1062        0.0000000000000000     
   373679611915.85895       -1350301366749.0176        0.0000000000000000     
   0.0000000000000000       -1570712633171.8823        0.0000000000000000     
   88249425586.422531       -1551528882681.7375        0.0000000000000000     
   176165467953.06860       -1509374090711.1367        0.0000000000000000     
   263748127099.93817       -1444248257260.0806        0.0000000000000000     
   350997403027.03131       -1356151382328.5684        0.0000000000000000     
   0.0000000000000000       -1577413942351.0408        0.0000000000000000     
   81874956083.504028       -1557872316251.9307        0.0000000000000000     
   163794769395.93579       -1515354045663.1436        0.0000000000000000     
   245759439937.29526       -1449859130584.6799        0.0000000000000000     
   327768967707.58252       -1361387571016.5398        0.0000000000000000     
   0.0000000000000000       -1583432160240.8350        0.0000000000000000     
   75251037943.702942       -1563861643263.8574        0.0000000000000000     
   151000434917.85599       -1521101099700.2139        0.0000000000000000     
   227248190922.45917       -1455150529549.9050        0.0000000000000000     
   303994305957.51251       -1366009932812.9312        0.0000000000000000     
   0.0000000000000000       -1588767286841.2656        0.0000000000000000     
   68377671167.019241       -1569496863717.5171        0.0000000000000000     
   137782464518.82922       -1526615252822.3472        0.0000000000000000     
   208214380055.42996       -1460122454155.7559        0.0000000000000000     
   279673417776.82135       -1370018467717.7432        0.0000000000000000     
   373679611915.85895       -1350301366749.0176        0.0000000000000000     
   472710074151.74622       -1228879478135.1934        0.0000000000000000     
   585507104164.12830       -1063820115506.9006        0.0000000000000000     
   712070701953.00537       -855123278864.13916        0.0000000000000000     
   852400867518.37732       -602788968206.90930        0.0000000000000000     
   350997403027.03131       -1356151382328.5684        0.0000000000000000     
   446288127283.31329       -1234583809916.2395        0.0000000000000000     
   557995131417.74939       -1069045884022.7328        0.0000000000000000     
   686118415430.33960       -859537604648.04785        0.0000000000000000     
   830657979321.08435       -606058971792.18506        0.0000000000000000     
   327768967707.58252       -1361387571016.5398        0.0000000000000000     
   418755004719.93951       -1239561008744.6462        0.0000000000000000     
   527649202987.50867       -1074001085554.9238        0.0000000000000000     
   654451562510.28979       -864707801447.37231        0.0000000000000000     
   799162083288.28308       -611681156421.99146        0.0000000000000000     
   303994305957.51251       -1366009932812.9312        0.0000000000000000     
   390110706461.62506       -1243811074620.4136        0.0000000000000000     
   494469318873.40613       -1078685720103.4738        0.0000000000000000     
   617070143192.85559       -870633869262.11194        0.0000000000000000     
   757913179419.97351       -619655522096.32849        0.0000000000000000     
   279673417776.82135       -1370018467717.7432        0.0000000000000000     
   360355232508.36993       -1247334007543.5410        0.0000000000000000     
   458455479075.44183       -1083099787668.3828        0.0000000000000000     
   573974157478.03711       -877315808092.26758        0.0000000000000000     
   706911267716.15564       -629982068815.19617        0.0000000000000000     
   0.0000000000000000       -1588767286841.2656        0.0000000000000000     
   68377671167.019241       -1569496863717.5171        0.0000000000000000     
   137782464518.82922       -1526615252822.3472        0.0000000000000000     
   208214380055.42996       -1460122454155.7559        0.0000000000000000     
   279673417776.82135       -1370018467717.7432        0.0000000000000000     
   0.0000000000000000       -1593419151817.2324        0.0000000000000000     
   61320581923.218338       -1574713865357.8406        0.0000000000000000     
   124221500537.84009       -1531817089565.3416        0.0000000000000000     
   188702755843.86530       -1464728824439.7361        0.0000000000000000     
   254764347841.29398       -1373449069981.0234        0.0000000000000000     
   0.0000000000000000       -1597387584833.6343        0.0000000000000000     
   54145496382.065567       -1579448535929.7571        0.0000000000000000     
   110398185313.87325       -1536627194464.9956        0.0000000000000000     
   168758066795.42307       -1468923560439.3501        0.0000000000000000     
   229225140826.71497       -1376337633852.8208        0.0000000000000000     
   0.0000000000000000       -1600672585890.4727        0.0000000000000000     
   46852414543.560951       -1583700875433.2666        0.0000000000000000     
   96312518846.928680       -1541045567521.3088        0.0000000000000000     
   148380312910.10321       -1472706662154.5979        0.0000000000000000     
   203055796733.08456       -1378684159333.1345        0.0000000000000000     
   0.0000000000000000       -1603274154987.7466        0.0000000000000000     
   39441336407.704483       -1587470883868.3696        0.0000000000000000     
   81964501137.006393       -1545072208734.2808        0.0000000000000000     
   127569494187.90575       -1476078129585.4795        0.0000000000000000     
   176256315560.40256       -1380488646421.9658        0.0000000000000000     
   279673417776.82135       -1370018467717.7432        0.0000000000000000     
   360355232508.36993       -1247334007543.5410        0.0000000000000000     
   458455479075.44183       -1083099787668.3828        0.0000000000000000     
   573974157478.03711       -877315808092.26758        0.0000000000000000     
   706911267716.15564       -629982068815.19617        0.0000000000000000     
   254764347841.29398       -1373449069981.0234        0.0000000000000000     
   329547619467.84650       -1250152214212.9915        0.0000000000000000     
   420193913661.24341       -1087012645159.4280        0.0000000000000000     
   526703230421.48480       -884030362820.33313        0.0000000000000000     
   649075569748.57056       -641205367195.70679        0.0000000000000000     
   229225140826.71497       -1376337633852.8208        0.0000000000000000     
   297746903947.72748       -1252288101327.7266        0.0000000000000000     
   380270852698.43903       -1090193649486.3871        0.0000000000000000     
   476796987078.84961       -890054278328.80249        0.0000000000000000     
   587325307088.95923       -651869987854.97266        0.0000000000000000     
   203055796733.08456       -1378684159333.1345        0.0000000000000000     
   264953085948.01288       -1253741668887.7463        0.0000000000000000     
   338686296187.02863       -1092642800649.2605        0.0000000000000000     
   424255427450.13153       -895387554617.67603        0.0000000000000000     
   521660479737.32178       -661975930792.99390        0.0000000000000000     
   176256315560.40256       -1380488646421.9658        0.0000000000000000     
   231166165468.70273       -1254512916893.0513        0.0000000000000000     
   295440244127.01196       -1094360098648.0472        0.0000000000000000     
   369078551535.33051       -900030191686.95349        0.0000000000000000     
   452081087693.65814       -671523196009.77026        0.0000000000000000     
   0.0000000000000000       -1603274154987.7466        0.0000000000000000     
   39441336407.704483       -1587470883868.3696        0.0000000000000000     
   81964501137.006393       -1545072208734.2808        0.0000000000000000     
   127569494187.90575       -1476078129585.4795        0.0000000000000000     
   176256315560.40256       -1380488646421.9658        0.0000000000000000     
   0.0000000000000000       -1605215422717.5776        0.0000000000000000     
   32004501067.189323       -1590711353478.9260        0.0000000000000000     
   67444629105.173096       -1548643433521.2295        0.0000000000000000     
   106320384113.95132       -1479011662844.4878        0.0000000000000000     
   148631766093.52402       -1381816041448.7012        0.0000000000000000     
   0.0000000000000000       -1606519519672.0879        0.0000000000000000     
   24634147614.708664       -1593375076508.7966        0.0000000000000000     
   52843399672.495514       -1551695557299.4731        0.0000000000000000     
   84627756173.360550       -1481480962044.1165        0.0000000000000000     
   119987217117.30377       -1382731290742.7280        0.0000000000000000     
   0.0000000000000000       -1607186445851.2769        0.0000000000000000     
   17330276050.262486       -1595462052957.9807        0.0000000000000000     
   38160812838.973633       -1554228580069.0103        0.0000000000000000     
   62491610366.133430       -1483486027184.3662        0.0000000000000000     
   90322668631.741867       -1383234394304.0471        0.0000000000000000     
   0.0000000000000000       -1607216201255.1440        0.0000000000000000     
   10092886373.850801       -1596972282826.4785        0.0000000000000000     
   23396868604.607452       -1556242501829.8423        0.0000000000000000     
   39911946692.269943       -1485026858265.2354        0.0000000000000000     
   59638120636.838295       -1383325352132.6572        0.0000000000000000     
   176256315560.40256       -1380488646421.9658        0.0000000000000000     
   231166165468.70273       -1254512916893.0513        0.0000000000000000     
   295440244127.01196       -1094360098648.0472        0.0000000000000000     
   369078551535.33051       -900030191686.95349        0.0000000000000000     
   452081087693.65814       -671523196009.77026        0.0000000000000000     
   148631766093.52402       -1381816041448.7012        0.0000000000000000     
   196260387199.38669       -1254769532163.4453        0.0000000000000000     
   251087859587.03494       -1095585097818.2958        0.0000000000000000     
   313114183256.46875       -904262738413.25293        0.0000000000000000     
   382339358207.68805       -680802453948.31653        0.0000000000000000     
   119987217117.30377       -1382731290742.7280        0.0000000000000000     
   160109995829.65472       -1254679201518.7319        0.0000000000000000     
   206184305635.74295       -1096557352495.5531        0.0000000000000000     
   258210146535.56848       -908365743673.19177        0.0000000000000000     
   316187518529.13123       -690104375051.64709        0.0000000000000000     
   90322668631.741867       -1383234394304.0471        0.0000000000000000     
   122714991359.50682       -1254241924958.9124        0.0000000000000000     
   160729582273.13611       -1097276862679.8199        0.0000000000000000     
   204366441372.62976       -912339207466.76965        0.0000000000000000     
   253625568657.98770       -699428959319.76221        0.0000000000000000     
   59638120636.838295       -1383325352132.6572        0.0000000000000000     
   84075373788.942947       -1253457702483.9851        0.0000000000000000     
   114723689499.21436       -1097743628371.0953        0.0000000000000000     
   151583067767.65253       -916183129793.98718        0.0000000000000000     
   194653508594.25745       -708776206752.66162        0.0000000000000000     
   0.0000000000000000       -1607216201255.1440        0.0000000000000000     
   10092886373.850801       -1596972282826.4785        0.0000000000000000     
   23396868604.607452       -1556242501829.8423        0.0000000000000000     
   39911946692.269943       -1485026858265.2354        0.0000000000000000     
   59638120636.838295       -1383325352132.6572        0.0000000000000000     
   0.0000000000000000       -1607192961440.2427        0.0000000000000000     
   2955023058.8289881       -1597764484667.5867        0.0000000000000000     
   8613592966.3302517       -1557325566351.5833        0.0000000000000000     
   16975709722.503792       -1485876206492.2319        0.0000000000000000     
   28041373327.349606       -1383416405089.5325        0.0000000000000000     
   0.0000000000000000       -1607700901963.1245        0.0000000000000000     
  -4050269421.4475660       -1597697377034.6016        0.0000000000000000     
  -6126988078.9246922       -1557066017403.8477        0.0000000000000000     
  -6230155972.4313803       -1485806823070.8621        0.0000000000000000     
  -4359773101.9676247       -1383919794035.6453        0.0000000000000000     
   0.0000000000000000       -1608740022823.7900        0.0000000000000000     
  -10922991066.978863       -1596770959927.5239        0.0000000000000000     
  -20824874531.157383       -1555463854986.6355        0.0000000000000000     
  -29705650392.535561       -1484818708001.1267        0.0000000000000000     
  -37565318651.113388       -1384835518970.9954        0.0000000000000000     
   0.0000000000000000       -1610310324022.2388        0.0000000000000000     
  -17663141877.764900       -1594985233346.3521        0.0000000000000000     
  -35480066390.367821       -1552519079099.9473        0.0000000000000000     
  -53450773537.808762       -1482911861283.0244        0.0000000000000000     
  -71575263320.087708       -1386163579895.5833        0.0000000000000000     
   59638120636.838295       -1383325352132.6572        0.0000000000000000     
   84075373788.942947       -1253457702483.9851        0.0000000000000000     
   114723689499.21436       -1097743628371.0953        0.0000000000000000     
   151583067767.65253       -916183129793.98718        0.0000000000000000     
   194653508594.25745       -708776206752.66162        0.0000000000000000     
   28041373327.349606       -1383416405089.5325        0.0000000000000000     
   43867274684.733452       -1253075698304.6655        0.0000000000000000     
   66510104698.521072       -1097983622298.8112        0.0000000000000000     
   95969863368.712479       -918140177071.96936        0.0000000000000000     
   132246550695.30765       -713545362624.13977        0.0000000000000000     
  -4359773101.9676247       -1383919794035.6453        0.0000000000000000     
   1766825613.6486766       -1253845076631.6677        0.0000000000000000     
   14432305255.599632       -1098022817192.3992        0.0000000000000000     
   33636665823.885239       -916453015717.84070        0.0000000000000000     
   59379907318.505493       -709135672207.99146        0.0000000000000000     
  -37565318651.113388       -1384835518970.9954        0.0000000000000000     
  -42225973424.311356       -1255765837464.9907        0.0000000000000000     
  -41509708829.549980       -1097861213051.8593        0.0000000000000000     
  -35416524866.829185       -911121645731.60120        0.0000000000000000     
  -23946421536.149025       -695547135504.21655        0.0000000000000000     
  -71575263320.087708       -1386163579895.5833        0.0000000000000000     
  -88111122429.146698       -1258837980804.6350        0.0000000000000000     
  -101315937556.92772       -1097498809877.1909        0.0000000000000000     
  -111189708703.43080       -902146067113.25098        0.0000000000000000     
  -117732435868.65591       -672779752512.81519        0.0000000000000000     
 </DataArray>
 <DataArray  type="Float64" Name="stress" NumberOfComponents="3" format="ascii">
   4.5057490430476304E+021  -1.3165694082091581E+020   1.2757442530304331E+020
   4.5208411231136923E+021   2.0467963238619283E+019   1.0696381728876061E+020
   4.5070403736980491E+021   7.6283435692471353E+019   7.3381829243433558E+019
   4.4624661833313210E+021   2.9520771642706887E+019  -1.1532044646917724E+019
   4.3793829633653673E+021  -1.4560532440447687E+020  -2.0416706308218103E+020
   4.2179177885381616E+021  -8.6852789615851471E+019   1.4212116461385779E+020
   4.2216165548373993E+021   1.3565978486413722E+018   9.7104750469669044E+019
   4.1959997855829118E+021   3.7331980813755482E+019   4.8067340626253570E+019
   4.1388027096276670E+021   1.8909220412079210E+019  -3.8215449271730627E+019
   4.0425627686430436E+021  -6.4681263549147251E+019  -2.0721803957274100E+020
   3.9149438889319643E+021  -4.6591431939878552E+019   1.4867637884809501E+020
   3.9115805548542647E+021  -2.1204288672512082E+019   8.3776706366365630E+019
   3.8798113895352264E+021  -3.8157926838325740E+018   2.3868775063447335E+019
   3.8181224279693334E+021   6.7446595649142784E+018  -5.8724324386879791E+019
   3.7209782622285359E+021   1.0984460859710636E+019  -1.9918233390241382E+020
   3.5968273442290768E+021  -1.0872867792868606E+019   1.4724006800575896E+020
   3.5908465132743164E+021  -4.7179778903342318E+019   6.6919563452713304E+019
   3.5588380404424245E+021  -4.7039369019946697E+019   6.8356773080353370E+017
   3.5009343813767953E+021  -6.7177163574433546E+018  -7.3334565376797385E+019
   3.4146221038258975E+021   8.2165072295725892E+019  -1.8080157242553054E+020
   3.2635681544294844E+021   2.0302902825129607E+019   1.3781223208685021E+020
   3.2595271606518158E+021  -7.6535158526430282E+019   4.6473549911182107E+019
   3.2334339925315646E+021  -9.2221088970238853E+019  -2.1588415127027540E+019
   3.1877195898377030E+021  -2.1236761380588225E+019  -8.2306879468701647E+019
   3.1234877054686331E+021   1.4955454418105126E+020  -1.5274136993101290E+020
   4.3793829633653673E+021  -1.4560532440447687E+020  -2.0416706308218103E+020
   5.0404149326539055E+021  -1.4481627101519544E+020  -7.2188618017966637E+019
   5.7200795246384361E+021  -8.1918475305942254E+019   8.4092143990779003E+019
   6.4279185541174395E+021   7.4894112051535544E+019   1.7680296649650808E+020
   7.2128642182980483E+021   4.8872881508106502E+020  -1.2836966759107150E+020
   4.0425627686430436E+021  -6.4681263549147251E+019  -2.0721803957274100E+020
   4.7873234711837797E+021   4.9093758618447118E+019  -5.9517524285280199E+019
   5.4822865680935860E+021   7.9715243006160273E+019   2.1194537801887982E+019
   6.0854675175228351E+021  -5.6194265838706491E+019  -1.0567931758740216E+020
   6.4571205124818909E+021  -6.3023247376788436E+020  -8.7056296236063601E+020
   3.7209782622285359E+021   1.0984460859710636E+019  -1.9918233390241382E+020
   4.4963693699314095E+021   2.0649641616947046E+020  -4.5209726447473263E+019
   5.1453775749222435E+021   1.7578064245190296E+020  -3.9629271855048491E+019
   5.5833637738738195E+021  -2.2800412084022883E+020  -3.4040742942608051E+020
   5.5862737497272038E+021  -1.3953386496648321E+021  -1.3435161253965652E+021
   3.4146221038258975E+021   8.2165072295725892E+019  -1.8080157242553054E+020
   4.1676823972875993E+021   3.3078982878127863E+020  -3.0624320564961829E+019
   4.7152517916845115E+021   2.1572445912038349E+020  -1.0211307512147396E+020
   4.9429328677425067E+021  -4.3655501116923550E+020  -5.5028465068038167E+020
   4.6004104044492012E+021  -2.0148287429119131E+021  -1.7044065550456023E+021
   3.1234877054686331E+021   1.4955454418105126E+020  -1.5274136993101290E+020
   3.8013701952355303E+021   4.2479271943009888E+020  -1.6888667425202354E+019
   4.1962356474028407E+021   2.0647480370626180E+020  -1.6899518406267981E+020
   4.1768874650400037E+021  -6.7947410051173004E+020  -7.4896417398215213E+020
   3.4995644993686303E+021  -2.5706328637919231E+021  -2.0150745391818667E+021