 <VTKFile type="UnstructuredGrid"  version="0.1"   >
 <UnstructuredGrid>
 <Piece  NumberOfPoints="          1296 "  NumberOfCells="         1024 ">
 <Points>
 <DataArray  type="Float64" NumberOfComponents="3"  format="ascii" >
  -10.000000000000000        0.0000000000000000        0.0000000000000000     
  -9.8437500000000000        0.0000000000000000        0.0000000000000000     
  -9.6875000000000000        0.0000000000000000        0.0000000000000000     
  -9.5312500000000000        0.0000000000000000        0.0000000000000000     
  -9.3750000000000000        0.0000000000000000        0.0000000000000000     
  -9.2187500000000000        0.0000000000000000        0.0000000000000000     
  -9.0625000000000000        0.0000000000000000        0.0000000000000000     
  -8.9062500000000000        0.0000000000000000        0.0000000000000000     
  -8.7500000000000000        0.0000000000000000        0.0000000000000000     
  -10.000000000000000       0.15624999999999997        0.0000000000000000     
  -9.8437500000000000       0.15625000000000000        0.0000000000000000     
  -9.6875000000000000       0.15624999999999997        0.0000000000000000     
  -9.5312500000000000       0.15625000000000000        0.0000000000000000     
  -9.3750000000000000       0.15624999999999997        0.0000000000000000     
  -9.2187500000000000       0.15625000000000000        0.0000000000000000     
  -9.0625000000000000       0.15625000000000000        0.0000000000000000     
  -8.9062500000000000       0.15624999999999997        0.0000000000000000     
  -8.7499999999999982       0.15625000000000000        0.0000000000000000     
  -10.000000000000000       0.31250000000000000        0.0000000000000000     
  -9.8437500000000000       0.31249999999999994        0.0000000000000000     
  -9.6875000000000000       0.31249999999999994        0.0000000000000000     
  -9.5312500000000000       0.31250000000000000        0.0000000000000000     
  -9.3750000000000000       0.31249999999999994        0.0000000000000000     
  -9.2187500000000000       0.31250000000000000        0.0000000000000000     
  -9.0624999999999982       0.31250000000000000        0.0000000000000000     
  -8.9062499999999982       0.31249999999999994        0.0000000000000000     
  -8.7499999999999982       0.31249999999999994        0.0000000000000000     
  -10.000000000000000       0.46875000000000000        0.0000000000000000     
  -9.8437500000000000       0.46875000000000000        0.0000000000000000     
  -9.6875000000000000       0.46875000000000000        0.0000000000000000     
  -9.5312500000000000       0.46875000000000000        0.0000000000000000     
  -9.3749999999999982       0.46875000000000000        0.0000000000000000     
  -9.2187500000000000       0.46875000000000000        0.0000000000000000     
  -9.0625000000000000       0.46875000000000000        0.0000000000000000     
  -8.9062500000000000       0.46875000000000000        0.0000000000000000     
  -8.7500000000000000       0.46875000000000000        0.0000000000000000     
  -10.000000000000000       0.62499999999999989        0.0000000000000000     
  -9.8437500000000000       0.62499999999999989        0.0000000000000000     
  -9.6875000000000000       0.62500000000000000        0.0000000000000000     
  -9.5312499999999982       0.62499999999999989        0.0000000000000000     
  -9.3749999999999982       0.62499999999999989        0.0000000000000000     
  -9.2187500000000000       0.62500000000000000        0.0000000000000000     
  -9.0624999999999982       0.62499999999999989        0.0000000000000000     
  -8.9062500000000000       0.62499999999999978        0.0000000000000000     
  -8.7500000000000000       0.62500000000000000        0.0000000000000000     
  -10.000000000000000       0.78125000000000011        0.0000000000000000     
  -9.8437500000000000       0.78125000000000000        0.0000000000000000     
  -9.6875000000000000       0.78125000000000000        0.0000000000000000     
  -9.5312500000000000       0.78125000000000011        0.0000000000000000     
  -9.3750000000000000       0.78124999999999989        0.0000000000000000     
  -9.2187500000000000       0.78125000000000011        0.0000000000000000     
  -9.0625000000000000       0.78125000000000000        0.0000000000000000     
  -8.9062499999999982       0.78125000000000000        0.0000000000000000     
  -8.7500000000000000       0.78124999999999989        0.0000000000000000     
  -10.000000000000000       0.93750000000000000        0.0000000000000000     
  -9.8437500000000000       0.93750000000000000        0.0000000000000000     
  -9.6875000000000000       0.93750000000000000        0.0000000000000000     
  -9.5312500000000000       0.93750000000000000        0.0000000000000000     
  -9.3749999999999982       0.93750000000000000        0.0000000000000000     
  -9.2187500000000000       0.93750000000000000        0.0000000000000000     
  -9.0625000000000000       0.93750000000000000        0.0000000000000000     
  -8.9062499999999982       0.93750000000000000        0.0000000000000000     
  -8.7499999999999982       0.93750000000000000        0.0000000000000000     
  -10.000000000000000        1.0937499999999998        0.0000000000000000     
  -9.8437500000000000        1.0937499999999998        0.0000000000000000     
  -9.6875000000000000        1.0937500000000000        0.0000000000000000     
  -9.5312500000000018        1.0937500000000002        0.0000000000000000     
  -9.3750000000000000        1.0937500000000002        0.0000000000000000     
  -9.2187500000000000        1.0937499999999998        0.0000000000000000     
  -9.0625000000000000        1.0937500000000002        0.0000000000000000     
  -8.9062500000000018        1.0937500000000004        0.0000000000000000     
  -8.7500000000000000        1.0937500000000000        0.0000000000000000     
  -10.000000000000002        1.2500000000000002        0.0000000000000000     
  -9.8437499999999982        1.2499999999999998        0.0000000000000000     
  -9.6874999999999982        1.2500000000000000        0.0000000000000000     
  -9.5312500000000000        1.2500000000000002        0.0000000000000000     
  -9.3750000000000000        1.2499999999999998        0.0000000000000000     
  -9.2187500000000000        1.2500000000000000        0.0000000000000000     
  -9.0625000000000000        1.2500000000000002        0.0000000000000000     
  -8.9062500000000000        1.2499999999999998        0.0000000000000000     
  -8.7500000000000000        1.2500000000000002        0.0000000000000000     
  -8.7500000000000000        0.0000000000000000        0.0000000000000000     
  -8.5937500000000000        0.0000000000000000        0.0000000000000000     
  -8.4374999999999982        0.0000000000000000        0.0000000000000000     
  -8.2812500000000018        0.0000000000000000        0.0000000000000000     
  -8.1250000000000000        0.0000000000000000        0.0000000000000000     
  -7.9687500000000018        0.0000000000000000        0.0000000000000000     
  -7.8124999999999991        0.0000000000000000        0.0000000000000000     
  -7.6562500000000000        0.0000000000000000        0.0000000000000000     
  -7.5000000000000018        0.0000000000000000        0.0000000000000000     
  -8.7499999999999982       0.15625000000000000        0.0000000000000000     
  -8.5937500000000000       0.15624999999999997        0.0000000000000000     
  -8.4375000000000000       0.15625000000000000        0.0000000000000000     
  -8.2812500000000000       0.15625000000000003        0.0000000000000000     
  -8.1250000000000000       0.15624999999999997        0.0000000000000000     
  -7.9687500000000009       0.15625000000000000        0.0000000000000000     
  -7.8125000000000018       0.15625000000000003        0.0000000000000000     
  -7.6562499999999991       0.15624999999999997        0.0000000000000000     
  -7.5000000000000009       0.15625000000000000        0.0000000000000000     
  -8.7499999999999982       0.31249999999999994        0.0000000000000000     
  -8.5937500000000000       0.31249999999999994        0.0000000000000000     
  -8.4374999999999982       0.31249999999999994        0.0000000000000000     
  -8.2812499999999982       0.31249999999999994        0.0000000000000000     
  -8.1249999999999982       0.31249999999999994        0.0000000000000000     
  -7.9687500000000000       0.31250000000000000        0.0000000000000000     
  -7.8124999999999991       0.31250000000000000        0.0000000000000000     
  -7.6562500000000000       0.31249999999999994        0.0000000000000000     
  -7.5000000000000000       0.31250000000000000        0.0000000000000000     
  -8.7500000000000000       0.46875000000000000        0.0000000000000000     
  -8.5937499999999982       0.46875000000000000        0.0000000000000000     
  -8.4375000000000000       0.46875000000000006        0.0000000000000000     
  -8.2812500000000000       0.46875000000000000        0.0000000000000000     
  -8.1249999999999982       0.46875000000000000        0.0000000000000000     
  -7.9687500000000018       0.46875000000000006        0.0000000000000000     
  -7.8125000000000000       0.46875000000000000        0.0000000000000000     
  -7.6562500000000000       0.46875000000000000        0.0000000000000000     
  -7.5000000000000018       0.46875000000000011        0.0000000000000000     
  -8.7500000000000000       0.62500000000000000        0.0000000000000000     
  -8.5937500000000000       0.62499999999999989        0.0000000000000000     
  -8.4374999999999982       0.62499999999999989        0.0000000000000000     
  -8.2812500000000000       0.62500000000000000        0.0000000000000000     
  -8.1250000000000000       0.62499999999999989        0.0000000000000000     
  -7.9687500000000000       0.62500000000000000        0.0000000000000000     
[...]
 <PointData>
 <DataArray  type="Float64" Name="disp" NumberOfComponents="3" format="ascii">
   0.0000000000000000        0.0000000000000000        0.0000000000000000     
   7.2287943611330767E-008   3.9791495729569122E-008   0.0000000000000000     
   1.4057587713210570E-007   7.5971204280706439E-008   0.0000000000000000     
   2.0544007468478720E-007   1.0956908614078970E-007   0.0000000000000000     
   2.6745681039183761E-007   1.4161510179719666E-007   0.0000000000000000     
   3.2720235837571951E-007   1.7313921173730512E-007   0.0000000000000000     
   3.8525299275889524E-007   2.0517137644849271E-007   0.0000000000000000     
   4.4218498766382707E-007   2.3874155641813730E-007   0.0000000000000000     
   4.9857461721297777E-007   2.7487971213361653E-007   0.0000000000000000     
   0.0000000000000000        0.0000000000000000        0.0000000000000000     
   6.1602141024372665E-008   3.1239474564998297E-008   0.0000000000000000     
   1.2170735808133027E-007   6.1635708423010646E-008   0.0000000000000000     
   1.8046999423060785E-007   9.1758418404422433E-008   0.0000000000000000     
   2.3804439253194037E-007   1.2217732133961907E-007   0.0000000000000000     
   2.9458489604506290E-007   1.5346213405898601E-007   0.0000000000000000     
   3.5024584782971041E-007   1.8618257339290857E-007   0.0000000000000000     
   4.0518159094561782E-007   2.2090835617177222E-007   0.0000000000000000     
   4.5954646845252021E-007   2.5820919922596233E-007   0.0000000000000000     
   0.0000000000000000        0.0000000000000000        0.0000000000000000     
   5.2895598457559869E-008   2.4281971156169906E-008   0.0000000000000000     
   1.0600828379519871E-007   4.9823004216690996E-008   0.0000000000000000     
   1.5921090322992032E-007   7.6856011370352898E-008   0.0000000000000000     
   2.1237630397872847E-007   1.0561390480594521E-007   0.0000000000000000     
   2.6537733325862714E-007   1.3632959671225759E-007   0.0000000000000000     
   3.1808683828661988E-007   1.6923599927807964E-007   0.0000000000000000     
   3.7037766627971068E-007   2.0456602469220092E-007   0.0000000000000000     
   4.2212266445490338E-007   2.4255258514341117E-007   0.0000000000000000     
   0.0000000000000000        0.0000000000000000        0.0000000000000000     
   4.5874030416502678E-008   1.8721476651070722E-008   0.0000000000000000     
   9.3015640440575752E-008   4.0233154687898482E-008   0.0000000000000000     
   1.4113366759689206E-007   6.4535987758296739E-008   0.0000000000000000     
   1.8993694941012432E-007   9.1630929510078968E-008   0.0000000000000000     
   2.3913432340494544E-007   1.2151893359105865E-007   0.0000000000000000     
   2.8843462710602819E-007   1.5420095364904919E-007   0.0000000000000000     
   3.3754669803804532E-007   1.8967794333186414E-007   0.0000000000000000     
   3.8617937372566973E-007   2.2795085628731689E-007   0.0000000000000000     
   0.0000000000000000        0.0000000000000000        0.0000000000000000     
   4.0243151406811360E-008   1.4360482197687510E-008   0.0000000000000000     
   8.2266414184326171E-008   3.2566222862784048E-008   0.0000000000000000     
   1.2570915324569046E-007   5.4472470287969613E-008   0.0000000000000000     
   1.7021073350405009E-007   7.9934472765924233E-008   0.0000000000000000     
   2.1541051987255114E-007   1.0880747858932793E-007   0.0000000000000000     
   2.6094787726433944E-007   1.4094673605086067E-007   0.0000000000000000     
   3.0646217059256116E-007   1.7620749344320250E-007   0.0000000000000000     
   3.5159276477036218E-007   2.1444499905903344E-007   0.0000000000000000     
   0.0000000000000000        0.0000000000000000        0.0000000000000000     
   3.5708675934096193E-008   1.1001478944007042E-008   0.0000000000000000     
   7.3297591193314754E-008   2.6522271767498656E-008   0.0000000000000000     
   1.1240822609048295E-007   4.6339581679087177E-008   0.0000000000000000     
   1.5268206093842809E-007   7.0230611887384916E-008   0.0000000000000000     
   1.9376057604997744E-007   9.7972565601004231E-008   0.0000000000000000     
   2.3528525173795820E-007   1.2934264602855741E-007   0.0000000000000000     
   2.7689756831519776E-007   1.6411805637865674E-007   0.0000000000000000     
   3.1823900609452328E-007   2.0207599985991466E-007   0.0000000000000000     
   0.0000000000000000        0.0000000000000000        0.0000000000000000     
   3.1976318503967435E-008   8.4469580380160804E-009   0.0000000000000000     
   6.5646157634406215E-008   2.1801364428193281E-008   0.0000000000000000     
   1.0070175204543706E-007   3.9811444651365068E-008   0.0000000000000000     
   1.3683533639118059E-007   6.2225424188364913E-008   0.0000000000000000     
   1.7373914532575764E-007   8.8791528520026349E-008   0.0000000000000000     
   2.1110541350328871E-007   1.1925798312718275E-007   0.0000000000000000     
   2.4862637557789464E-007   1.5337301349066766E-007   0.0000000000000000     
   2.8599426620369602E-007   1.9088484509131457E-007   0.0000000000000000     
   0.0000000000000000        0.0000000000000000        0.0000000000000000     
   2.8751793622035369E-008   6.4994106277014013E-009   0.0000000000000000     
   5.8849099674465345E-008   1.8103563871018876E-008   0.0000000000000000     
   9.0060597024720123E-008   3.4562181924518962E-008   0.0000000000000000     
   1.2215496454022991E-007   5.5624986982768176E-008   0.0000000000000000     
   1.5490088108842488E-007   8.1041701240333058E-008   0.0000000000000000     
   1.8806702553673529E-007   1.1056204689178014E-007   0.0000000000000000     
   2.2142207675259131E-007   1.4393574613167593E-007   0.0000000000000000     
   2.5473471360342304E-007   1.8091252115458699E-007   0.0000000000000000     
   0.0000000000000000        0.0000000000000000        0.0000000000000000     
   2.5740815793910266E-008   4.9613278610497657E-009   0.0000000000000000     
   5.2443403480356879E-008   1.5128933122126406E-008   0.0000000000000000     
   7.9955626942499646E-008   3.0265916218264476E-008   0.0000000000000000     
   1.0812535006349826E-007   5.0135377584498536E-008   0.0000000000000000     
   1.3680043672651257E-007   7.4500417655863133E-008   0.0000000000000000     
   1.6582875081470230E-007   1.0312413686739286E-007   0.0000000000000000     
   1.9505815621122721E-007   1.3576963565412223E-007   0.0000000000000000     
   2.2433651679924710E-007   1.7220001445108580E-007   0.0000000000000000     
   4.9857461721297777E-007   2.7487971213361653E-007   0.0000000000000000     
   5.5489139154189291E-007   3.1443713902651891E-007   0.0000000000000000     
   6.1117776483845312E-007   3.5755047230527548E-007   0.0000000000000000     
   6.6736942730362247E-007   4.0417768212252815E-007   0.0000000000000000     
   7.2340206913836476E-007   4.5427673863091846E-007   0.0000000000000000     
   7.7921138054364425E-007   5.0780561198308852E-007   0.0000000000000000     
   8.3473305172042446E-007   5.6472227233167965E-007   0.0000000000000000     
   8.8990277286966963E-007   6.2498468982933397E-007   0.0000000000000000     
   9.4465623419234391E-007   6.8855083462869339E-007   0.0000000000000000     
   4.5954646845252021E-007   2.5820919922596233E-007   0.0000000000000000     
   5.1347021013187580E-007   2.9856606576544538E-007   0.0000000000000000     
   5.6698409265203445E-007   3.4210490451851188E-007   0.0000000000000000     
   6.2009477940306964E-007   3.8886291059303336E-007   0.0000000000000000     
   6.7280893377505425E-007   4.3887727909688135E-007   0.0000000000000000     
   7.2513321915806202E-007   4.9218520513792771E-007   0.0000000000000000     
   7.7707429894216585E-007   5.4882388382404370E-007   0.0000000000000000     
   8.2863883651743872E-007   6.0883051026310075E-007   0.0000000000000000     
   8.7983349527395447E-007   6.7224227956297086E-007   0.0000000000000000     
   4.2212266445490338E-007   2.4255258514341117E-007   0.0000000000000000     
   4.7322382545547625E-007   2.8340342739444117E-007   0.0000000000000000     
   5.2369972362980575E-007   3.2722563650378671E-007   0.0000000000000000     
   5.7359807875254326E-007   3.7410113210388491E-007   0.0000000000000000     
   6.2296661059833964E-007   4.2411183382717276E-007   0.0000000000000000     
   6.7185303894184641E-007   4.7733966130608737E-007   0.0000000000000000     
   7.2030508355771394E-007   5.3386653417306559E-007   0.0000000000000000     
   7.6837046422059399E-007   5.9377437206054457E-007   0.0000000000000000     
   8.1609690070513755E-007   6.5714509460096164E-007   0.0000000000000000     
   3.8617937372566973E-007   2.2795085628731689E-007   0.0000000000000000     
   4.3410074518305145E-007   2.6903689109472468E-007   0.0000000000000000     
   4.8131591738224933E-007   3.1301822605941936E-007   0.0000000000000000     
   5.2788924878479934E-007   3.5999328441823643E-007   0.0000000000000000     
   5.7388509785223803E-007   4.1006048940801173E-007   0.0000000000000000     
   6.1936782304610105E-007   4.6331826426558067E-007   0.0000000000000000     
   6.6440178282792457E-007   5.1986503222777890E-007   0.0000000000000000     
   7.0905133565924509E-007   5.7979921653144187E-007   0.0000000000000000     
   7.5338084000159858E-007   6.4321924041340550E-007   0.0000000000000000     
   3.5159276477036218E-007   2.1444499905903344E-007   0.0000000000000000     
   3.9604947698495851E-007   2.5555412404751422E-007   0.0000000000000000     
   4.3982393351984673E-007   2.9958823098372875E-007   0.0000000000000000     
   4.8297821293259378E-007   3.4664030529924169E-007   0.0000000000000000     
   5.2557439378076582E-007   3.9680333242561719E-007   0.0000000000000000     
   5.6767455462193013E-007   4.5017029779442053E-007   0.0000000000000000     
   6.0934077401365293E-007   5.0683418683721582E-007   0.0000000000000000     
   6.5063513051350115E-007   5.6688798498556789E-007   0.0000000000000000     
   6.9161970267904151E-007   6.3042467767104108E-007   0.0000000000000000     
   3.1823900609452328E-007   2.0207599985991466E-007   0.0000000000000000     
   3.5901852853155452E-007   2.4304279343402821E-007   0.0000000000000000     
   3.9921503165308021E-007   2.8704120907503420E-007   0.0000000000000000     
   4.3887489462868181E-007   3.3414313251005384E-007   0.0000000000000000     
   4.7804449662794043E-007   3.8442044946620867E-007   0.0000000000000000     
   5.1677021682043763E-007   4.3794504567062012E-007   0.0000000000000000     
   5.5509843437575432E-007   4.9478880685040949E-007   0.0000000000000000     
   5.9307552846347191E-007   5.5502361873269843E-007   0.0000000000000000     
   6.3074787825317189E-007   6.1872136704460847E-007   0.0000000000000000     
   2.8599426620369602E-007   1.9088484509131457E-007   0.0000000000000000     
   3.2295640749319660E-007   2.3159056643548522E-007   0.0000000000000000     
   3.5948047139243169E-007   2.7548271813165480E-007   0.0000000000000000     
   3.9558921730581947E-007   3.2260270381382698E-007   0.0000000000000000     
   4.3130540463777872E-007   3.7299192711600493E-007   0.0000000000000000     
   4.6665179279272750E-007   4.2669179167219254E-007   0.0000000000000000     
   5.0165114117508404E-007   4.8374370111639296E-007   0.0000000000000000     
   5.3632620918926670E-007   5.4418905908260988E-007   0.0000000000000000     
   5.7069975623969419E-007   6.0806926920484694E-007   0.0000000000000000     
   2.5473471360342304E-007   1.8091252115458699E-007   0.0000000000000000     
   2.8781162154024183E-007   2.2128511023310343E-007   0.0000000000000000     
   3.2061151234838289E-007   2.6501831595190987E-007   0.0000000000000000     
   3.5313110439676275E-007   3.1211995697371437E-007   0.0000000000000000     
   3.8536711605429744E-007   3.6259785196122513E-007   0.0000000000000000     
   4.1731626568990361E-007   4.1645981957715061E-007   0.0000000000000000     
   4.4897527167249729E-007   4.7371367848419868E-007   0.0000000000000000     
   4.8034085237099476E-007   5.3436724734507752E-007   0.0000000000000000     
   5.1140972615431311E-007   5.9842834482249543E-007   0.0000000000000000     
   2.2433651679924710E-007   1.7220001445108580E-007   0.0000000000000000     
   2.5353267834304739E-007   2.1221409200810122E-007   0.0000000000000000     
   2.8259941413141620E-007   2.5575356033411833E-007   0.0000000000000000     
   3.1151047933426700E-007   3.0279582975286977E-007   0.0000000000000000     
   3.4023962912151372E-007   3.5331831058808857E-007   0.0000000000000000     
   3.6876061866307004E-007   4.0729841316350755E-007   0.0000000000000000     
   3.9704720312884958E-007   4.6471354780285969E-007   0.0000000000000000     
   4.2507313768876614E-007   5.2554112482987744E-007   0.0000000000000000     
   4.5281217751273334E-007   5.8975855456829405E-007   0.0000000000000000     
   9.4465623419234391E-007   6.8855083462869339E-007   0.0000000000000000     
   9.9893996796553911E-007   7.5538573926990646E-007   0.0000000000000000     
   1.0527438747708599E-006   8.2548268584315169E-007   0.0000000000000000     
   1.1060686972660394E-006   8.9884201882611434E-007   0.0000000000000000     
   1.1589151781088095E-006   9.7546408269647915E-007   0.0000000000000000     
   1.2112840599569035E-006   1.0553492219319323E-006   0.0000000000000000     
   1.2631760854680537E-006   1.1384977810101586E-006   0.0000000000000000     
   1.3145919972999928E-006   1.2249101044088435E-006   0.0000000000000000     
   1.3655325381104539E-006   1.3145865366056726E-006   0.0000000000000000     
   8.7983349527395447E-007   6.7224227956297086E-007   0.0000000000000000     
   9.3066107416449886E-007   7.3908392552536167E-007   0.0000000000000000     
   9.8110891439271153E-007   8.0933033672732671E-007   0.0000000000000000     
   1.0311604927249457E-006   8.8294394043975620E-007   0.0000000000000000     
   1.0807992859275529E-006   9.5988716393353961E-007   0.0000000000000000     
   1.1300087707668861E-006   1.0401224344795666E-006   0.0000000000000000     
   1.1787724240092987E-006   1.1236121793487281E-006   0.0000000000000000     
   1.2270737224211421E-006   1.2103188258119129E-006   0.0000000000000000     
   1.2748961427687693E-006   1.3002048011400114E-006   0.0000000000000000     
   8.1609690070513755E-007   6.5714509460096164E-007   0.0000000000000000     
   8.6351996857350238E-007   7.2403716598656913E-007   0.0000000000000000     
   9.1062666653787458E-007   7.9441522864888371E-007   0.0000000000000000     
   9.5739184909794656E-007   8.6822046957923738E-007   0.0000000000000000     
   1.0037903707534111E-006   9.4539407576896180E-007   0.0000000000000000     
   1.0497970860039604E-006   1.0258772342093893E-006   0.0000000000000000     
   1.0953868493492880E-006   1.1096111318918524E-006   0.0000000000000000     
   1.1405345152890859E-006   1.1965369558076819E-006   0.0000000000000000     
   1.1852149383230468E-006   1.2865958929482111E-006   0.0000000000000000     
   7.5338084000159858E-007   6.4321924041340550E-007   0.0000000000000000     
   7.9743946158059903E-007   7.1019601591243293E-007   0.0000000000000000     
   8.4121559517817562E-007   7.8069041027500189E-007   0.0000000000000000     
   8.8468244284033506E-007   8.5463577954951678E-007   0.0000000000000000     
   9.2781320661308401E-007   9.3196547978438264E-007   0.0000000000000000     
   9.7058108854242961E-007   1.0126128670280044E-006   0.0000000000000000     
   1.0129592906743790E-006   1.0965112973287875E-006   0.0000000000000000     
   1.0549210150549381E-006   1.1835941267351366E-006   0.0000000000000000     
   1.0964394637301150E-006   1.2737947112954567E-006   0.0000000000000000     
   6.9161970267904151E-007   6.3042467767104108E-007   0.0000000000000000     
   7.3234236357383793E-007   6.9751103056185652E-007   0.0000000000000000     
   7.7279416428544189E-007   7.6810893027285948E-007   0.0000000000000000     
   8.1295195040740365E-007   8.4215404365555237E-007   0.0000000000000000     
   8.5279256753327230E-007   9.1958203756143716E-007   0.0000000000000000     
   8.9229286125659683E-007   1.0003285788420154E-006   0.0000000000000000     
   9.3142967717092687E-007   1.0843293343487892E-006   0.0000000000000000     
   9.7017986086981225E-007   1.1715199709332608E-006   0.0000000000000000     
   1.0085202579468012E-006   1.2618361554469318E-006   0.0000000000000000     
   6.3074787825317189E-007   6.1872136704460847E-007   0.0000000000000000     
   6.6815148494126716E-007   6.8593276519374304E-007   0.0000000000000000     
   7.0528083783150058E-007   7.5662383730963623E-007   0.0000000000000000     
   7.4212004825444493E-007   8.3073943520230392E-007   0.0000000000000000     
   7.7865322754067554E-007   9.0822441068176186E-007   0.0000000000000000     
   8.1486448702076549E-007   9.8902361555802635E-007   0.0000000000000000     
   8.5073793802528895E-007   1.0730819016411136E-006   0.0000000000000000     
   8.8625769188482071E-007   1.1603441207410396E-006   0.0000000000000000     
   9.2140785992993471E-007   1.2507551246678203E-006   0.0000000000000000     
   5.7069975623969419E-007   6.0806926920484694E-007   0.0000000000000000     
   6.0478963607093701E-007   6.7541177506699688E-007   0.0000000000000000     
   6.3859407978817816E-007   7.4618818005251059E-007   0.0000000000000000     
   6.7210641283675204E-007   8.2035612749472918E-007   0.0000000000000000     
   7.0531996066199387E-007   8.9787326072699239E-007   0.0000000000000000     
   7.3822804870923898E-007   9.7869722308264144E-007   0.0000000000000000     
   7.7082400242382217E-007   1.0627856578950163E-006   0.0000000000000000     
   8.0310114725107816E-007   1.1500962084974580E-006   0.0000000000000000     
   8.3505280863634247E-007   1.2405865182233063E-006   0.0000000000000000     
   5.1140972615431311E-007   5.9842834482249543E-007   0.0000000000000000     
   5.4217962735089608E-007   6.6589861544052077E-007   0.0000000000000000     
   5.7265235412730185E-007   7.3675500716866166E-007   0.0000000000000000     
   6.0283072060961705E-007   8.1096829383778696E-007   0.0000000000000000     
   6.3271754092392786E-007   8.8850924927876514E-007   0.0000000000000000     
   6.6231562919632068E-007   9.6934864732246433E-007   0.0000000000000000     
   6.9162779955288161E-007   1.0534572617997533E-006   0.0000000000000000     
   7.2065686611969746E-007   1.1408058665415008E-006   0.0000000000000000     
   7.4940564302285359E-007   1.2313652353785752E-006   0.0000000000000000     
   4.5281217751273334E-007   5.8975855456829405E-007   0.0000000000000000     
   4.8024426916919297E-007   6.5734384157321900E-007   0.0000000000000000     
   5.0737412482069896E-007   7.2827736732526842E-007   0.0000000000000000     
   5.3421264802833319E-007   8.0254010753643629E-007   0.0000000000000000     
   5.6077074235317764E-007   8.8011303791871514E-007   0.0000000000000000     
   5.8705931135631410E-007   9.6097713418409864E-007   0.0000000000000000     
   6.1308925859882466E-007   1.0451133720445802E-006   0.0000000000000000     
   6.3887148764179141E-007   1.1325027272121527E-006   0.0000000000000000     
   6.6441690204629591E-007   1.2231261753988095E-006   0.0000000000000000     
   1.3655325381104539E-006   1.3145865366056726E-006   0.0000000000000000     
   1.4159983952895333E-006   1.4075164386919416E-006   0.0000000000000000     
   1.4659900351567845E-006   1.5036452382133952E-006   0.0000000000000000     
   1.5155078687641250E-006   1.6029073793293873E-006   0.0000000000000000     
   1.5645523071634720E-006   1.7052373061992717E-006   0.0000000000000000     
   1.6131237614067426E-006   1.8105694629824043E-006   0.0000000000000000     
   1.6612226425458546E-006   1.9188382938381392E-006   0.0000000000000000     
   1.7088493616327248E-006   2.0299782429258304E-006   0.0000000000000000     
   1.7560043297192711E-006   2.1439237544048329E-006   0.0000000000000000     