 <VTKFile type="UnstructuredGrid"  version="0.1"   >
 <UnstructuredGrid>
 <Piece  NumberOfPoints="           800 "  NumberOfCells="          512 ">
 <Points>
 <DataArray  type="Float64" NumberOfComponents="3"  format="ascii" >
  -10.000000000000000        0.0000000000000000        0.0000000000000000     
  -9.3750000000000000        0.0000000000000000        0.0000000000000000     
  -8.7500000000000000        0.0000000000000000        0.0000000000000000     
  -8.1250000000000000        0.0000000000000000        0.0000000000000000     
  -7.5000000000000000        0.0000000000000000        0.0000000000000000     
  -10.000000000000000       0.15625000000000000        0.0000000000000000     
  -9.3750000000000000       0.15580024719238281        0.0000000000000000     
  -8.7500000000000000       0.15445098876953126        0.0000000000000000     
  -8.1250000000000000       0.15220222473144532        0.0000000000000000     
  -7.5000000000000000       0.14905395507812499        0.0000000000000000     
  -10.000000000000000       0.31250000000000000        0.0000000000000000     
  -9.3750000000000000       0.31162872314453127        0.0000000000000000     
  -8.7500000000000000       0.30901489257812498        0.0000000000000000     
  -8.1250000000000000       0.30465850830078123        0.0000000000000000     
  -7.5000000000000000       0.29855957031250002        0.0000000000000000     
  -10.000000000000000       0.46875000000000000        0.0000000000000000     
  -9.3750000000000000       0.46748542785644531        0.0000000000000000     
  -8.7500000000000000       0.46369171142578125        0.0000000000000000     
  -8.1250000000000000       0.45736885070800781        0.0000000000000000     
  -7.5000000000000000       0.44851684570312500        0.0000000000000000     
  -10.000000000000000       0.62500000000000000        0.0000000000000000     
  -9.3750000000000000       0.62337036132812496        0.0000000000000000     
  -8.7500000000000000       0.61848144531250004        0.0000000000000000     
  -8.1250000000000000       0.61033325195312504        0.0000000000000000     
  -7.5000000000000000       0.59892578124999996        0.0000000000000000     
  -7.5000000000000000        0.0000000000000000        0.0000000000000000     
  -6.8750000000000000        0.0000000000000000        0.0000000000000000     
  -6.2500000000000000        0.0000000000000000        0.0000000000000000     
  -5.6250000000000000        0.0000000000000000        0.0000000000000000     
  -5.0000000000000000        0.0000000000000000        0.0000000000000000     
  -7.5000000000000000       0.14905395507812499        0.0000000000000000     
  -6.8750000000000000       0.14500617980957031        0.0000000000000000     
  -6.2500000000000000       0.14005889892578127        0.0000000000000000     
  -5.6250000000000000       0.13421211242675782        0.0000000000000000     
  -5.0000000000000000       0.12746582031250001        0.0000000000000000     
  -7.5000000000000000       0.29855957031250002        0.0000000000000000     
  -6.8750000000000000       0.29071807861328125        0.0000000000000000     
  -6.2500000000000000       0.28113403320312502        0.0000000000000000     
  -5.6250000000000000       0.26980743408203128        0.0000000000000000     
  -5.0000000000000000       0.25673828124999998        0.0000000000000000     
  -7.5000000000000000       0.44851684570312500        0.0000000000000000     
  -6.8750000000000000       0.43713569641113287        0.0000000000000000     
  -6.2500000000000000       0.42322540283203131        0.0000000000000000     
  -5.6250000000000000       0.40678596496582037        0.0000000000000000     
  -5.0000000000000000       0.38781738281250000        0.0000000000000000     
  -7.5000000000000000       0.59892578124999996        0.0000000000000000     
  -6.8750000000000000       0.58425903320312500        0.0000000000000000     
  -6.2500000000000000       0.56633300781250007        0.0000000000000000     
  -5.6250000000000000       0.54514770507812504        0.0000000000000000     
  -5.0000000000000000       0.52070312500000004        0.0000000000000000     
  -5.0000000000000000        0.0000000000000000        0.0000000000000000     
  -4.3750000000000000        0.0000000000000000        0.0000000000000000     
  -3.7500000000000000        0.0000000000000000        0.0000000000000000     
  -3.1250000000000000        0.0000000000000000        0.0000000000000000     
  -2.5000000000000000        0.0000000000000000        0.0000000000000000     
  -5.0000000000000000       0.12746582031250001        0.0000000000000000     
  -4.3750000000000000       0.11982002258300783        0.0000000000000000     
  -3.7500000000000000       0.11127471923828126        0.0000000000000000     
  -3.1250000000000000       0.10182991027832032        0.0000000000000000     
  -2.5000000000000000        9.1485595703125006E-002   0.0000000000000000     
  -5.0000000000000000       0.25673828124999998        0.0000000000000000     
  -4.3750000000000000       0.24192657470703127        0.0000000000000000     
  -3.7500000000000000       0.22537231445312500        0.0000000000000000     
  -3.1250000000000000       0.20707550048828124        0.0000000000000000     
  -2.5000000000000000       0.18703613281250001        0.0000000000000000     
  -5.0000000000000000       0.38781738281250000        0.0000000000000000     
  -4.3750000000000000       0.36631965637207037        0.0000000000000000     
  -3.7500000000000000       0.34229278564453131        0.0000000000000000     
  -3.1250000000000000       0.31573677062988281        0.0000000000000000     
  -2.5000000000000000       0.28665161132812500        0.0000000000000000     
  -5.0000000000000000       0.52070312500000004        0.0000000000000000     
  -4.3750000000000000       0.49299926757812507        0.0000000000000000     
  -3.7500000000000000       0.46203613281250011        0.0000000000000000     
  -3.1250000000000000       0.42781372070312496        0.0000000000000000     
  -2.5000000000000000       0.39033203124999999        0.0000000000000000     
  -2.5000000000000000        0.0000000000000000        0.0000000000000000     
  -1.8750000000000000        0.0000000000000000        0.0000000000000000     
  -1.2500000000000000        0.0000000000000000        0.0000000000000000     
 -0.62500000000000000        0.0000000000000000        0.0000000000000000     
   0.0000000000000000        0.0000000000000000        0.0000000000000000     
  -2.5000000000000000        9.1485595703125006E-002   0.0000000000000000     
  -1.8750000000000000        8.0241775512695318E-002   0.0000000000000000     
  -1.2500000000000000        6.8098449707031258E-002   0.0000000000000000     
 -0.62500000000000000        5.5055618286132806E-002   0.0000000000000000     
   0.0000000000000000        4.1113281249999994E-002   0.0000000000000000     
  -2.5000000000000000       0.18703613281250001        0.0000000000000000     
  -1.8750000000000000       0.16525421142578126        0.0000000000000000     
  -1.2500000000000000       0.14172973632812499        0.0000000000000000     
 -0.62500000000000000       0.11646270751953125        0.0000000000000000     
   0.0000000000000000        8.9453124999999994E-002   0.0000000000000000     
  -2.5000000000000000       0.28665161132812500        0.0000000000000000     
  -1.8750000000000000       0.25503730773925781        0.0000000000000000     
  -1.2500000000000000       0.22089385986328128        0.0000000000000000     
 -0.62500000000000000       0.18422126770019528        0.0000000000000000     
   0.0000000000000000       0.14501953125000000        0.0000000000000000     
  -2.5000000000000000       0.39033203124999999        0.0000000000000000     
  -1.8750000000000000       0.34959106445312499        0.0000000000000000     
  -1.2500000000000000       0.30559082031250001        0.0000000000000000     
 -0.62500000000000000       0.25833129882812494        0.0000000000000000     
   0.0000000000000000       0.20781249999999998        0.0000000000000000     
  -10.000000000000000       0.62500000000000000        0.0000000000000000     
  -9.3750000000000000       0.62337036132812496        0.0000000000000000     
  -8.7500000000000000       0.61848144531250004        0.0000000000000000     
  -8.1250000000000000       0.61033325195312504        0.0000000000000000     
  -7.5000000000000000       0.59892578124999996        0.0000000000000000     
  -10.000000000000000       0.78125000000000000        0.0000000000000000     
  -9.3750000000000000       0.77928352355957031        0.0000000000000000     
  -8.7500000000000000       0.77338409423828125        0.0000000000000000     
  -8.1250000000000000       0.76355171203613281        0.0000000000000000     
  -7.5000000000000000       0.74978637695312511        0.0000000000000000     
  -10.000000000000000       0.93750000000000000        0.0000000000000000     
  -9.3750000000000000       0.93522491455078127        0.0000000000000000     
  -8.7500000000000000       0.92839965820312498        0.0000000000000000     
  -8.1250000000000000       0.91702423095703123        0.0000000000000000     
  -7.5000000000000000       0.90109863281250002        0.0000000000000000     
  -10.000000000000000        1.0937500000000000        0.0000000000000000     
  -9.3750000000000000        1.0911945343017579        0.0000000000000000     
  -8.7500000000000000        1.0835281372070313        0.0000000000000000     
  -8.1250000000000000        1.0707508087158204        0.0000000000000000     
  -7.5000000000000000        1.0528625488281251        0.0000000000000000     
  -10.000000000000000        1.2500000000000000        0.0000000000000000     
  -9.3750000000000000        1.2471923828125000        0.0000000000000000     
  -8.7500000000000000        1.2387695312500000        0.0000000000000000     
[...]
 <PointData>
 <DataArray  type="Float64" Name="disp" NumberOfComponents="3" format="ascii">
   0.0000000000000000        0.0000000000000000        0.0000000000000000     
   2.5120648246101746E-007   1.1175857473474848E-007   0.0000000000000000     
   4.9201289196715988E-007   2.6405671107583023E-007   0.0000000000000000     
   7.2241922851842708E-007   4.5689440902324519E-007   0.0000000000000000     
   9.4242549211481924E-007   6.9027166857699346E-007   0.0000000000000000     
   0.0000000000000000        0.0000000000000000        0.0000000000000000     
   2.2925301227903651E-007   1.0146714369032286E-007   0.0000000000000000     
   4.5203637149368879E-007   2.4739914960945136E-007   0.0000000000000000     
   6.6835007764395679E-007   4.3779601775738559E-007   0.0000000000000000     
   8.7819413072984054E-007   6.7265774813412552E-007   0.0000000000000000     
   0.0000000000000000        0.0000000000000000        0.0000000000000000     
   2.0875474289662875E-007   9.2105606836791635E-008   0.0000000000000000     
   4.1423808861262477E-007   2.3218330739513802E-007   0.0000000000000000     
   6.1645003714798806E-007   4.2023310167503907E-007   0.0000000000000000     
   8.1539058850271851E-007   6.5625498967649489E-007   0.0000000000000000     
   0.0000000000000000        0.0000000000000000        0.0000000000000000     
   1.8971167431379424E-007   8.3673964174154805E-008   0.0000000000000000     
   3.7861804332396795E-007   2.1840918443289004E-007   0.0000000000000000     
   5.6671910703052100E-007   4.0420566077620566E-007   0.0000000000000000     
   7.5401486543345347E-007   6.4106339320410167E-007   0.0000000000000000     
   0.0000000000000000        0.0000000000000000        0.0000000000000000     
   1.7212380653053292E-007   7.6172215702412383E-008   0.0000000000000000     
   3.4517623562771814E-007   2.0607678072270749E-007   0.0000000000000000     
   5.1915728729155552E-007   3.8971369506088533E-007   0.0000000000000000     
   6.9406696152204521E-007   6.2708295871694585E-007   0.0000000000000000     
   9.4242549211481924E-007   6.9027166857699346E-007   0.0000000000000000     
   1.1539545810244430E-006   9.7042861305032814E-007   0.0000000000000000     
   1.3589293935154052E-006   1.3036053657565020E-006   0.0000000000000000     
   1.5573499295877056E-006   1.6898019266955156E-006   0.0000000000000000     
   1.7492161892413446E-006   2.1290182958673688E-006   0.0000000000000000     
   8.7819413072984054E-007   6.7265774813412552E-007   0.0000000000000000     
   1.0818031534820410E-006   9.5585115392016913E-007   0.0000000000000000     
   1.2794117686312588E-006   1.2912430482960144E-006   0.0000000000000000     
   1.4710199761774949E-006   1.6788334312616611E-006   0.0000000000000000     
   1.6566277761207483E-006   2.1186223028171095E-006   0.0000000000000000     
   8.1539058850271851E-007   6.5625498967649489E-007   0.0000000000000000     
   1.0101009701729567E-006   9.4202934079988187E-007   0.0000000000000000     
   1.1996224096548431E-006   1.2793365244455767E-006   0.0000000000000000     
   1.3839549069483776E-006   1.6681765406135790E-006   0.0000000000000000     
   1.5630984620535601E-006   2.1085493893038889E-006   0.0000000000000000     
   7.5401486543345347E-007   6.4106339320410167E-007   0.0000000000000000     
   9.3884803109719044E-007   9.2896317368946666E-007   0.0000000000000000     
   1.1195613165861575E-006   1.2678857942051892E-006   0.0000000000000000     
   1.2961547219003534E-006   1.6578312547512694E-006   0.0000000000000000     
   1.4686282470397799E-006   2.0987995553277076E-006   0.0000000000000000     
   6.9406696152204521E-007   6.2708295871694585E-007   0.0000000000000000     
   8.6804433625474229E-007   9.1665265258892330E-007   0.0000000000000000     
   1.0392284894252015E-006   1.2568908575748524E-006   0.0000000000000000     
   1.2076194210334232E-006   1.6477975736747326E-006   0.0000000000000000     
   1.3732171310794075E-006   2.0893728008885641E-006   0.0000000000000000     
   1.7492161892413446E-006   2.1290182958673688E-006   0.0000000000000000     
   1.9337249451129971E-006   2.6160016160900972E-006   0.0000000000000000     
   2.1100729698393394E-006   3.1454990301817359E-006   0.0000000000000000     
   2.2782602634203712E-006   3.7175105381422862E-006   0.0000000000000000     
   2.4382868258560928E-006   4.3320361399717468E-006   0.0000000000000000     
   1.6566277761207483E-006   2.1186223028171095E-006   0.0000000000000000     
   1.8366343981879252E-006   2.6059400279121617E-006   0.0000000000000000     
   2.0114390721059318E-006   3.1361169714966181E-006   0.0000000000000000     
   2.1810417978747676E-006   3.7091531335704794E-006   0.0000000000000000     
   2.3454425754944330E-006   4.3250485141337462E-006   0.0000000000000000     
   1.5630984620535601E-006   2.1085493893038889E-006   0.0000000000000000     
   1.7383813318963382E-006   2.5962508236521172E-006   0.0000000000000000     
   1.9111317734026589E-006   3.1270765967938718E-006   0.0000000000000000     
   2.0813497865725225E-006   3.7010267087291528E-006   0.0000000000000000     
   2.2490353714059288E-006   4.3181011594579609E-006   0.0000000000000000     
   1.4686282470397799E-006   2.0987995553277076E-006   0.0000000000000000     
   1.6389657462382358E-006   2.5869340033099628E-006   0.0000000000000000     
   1.8091510737295207E-006   3.1183779060734960E-006   0.0000000000000000     
   1.9791842295136360E-006   3.6931312636183064E-006   0.0000000000000000     
   2.1490652135905800E-006   4.3111940759443936E-006   0.0000000000000000     
   1.3732171310794075E-006   2.0893728008885641E-006   0.0000000000000000     
   1.5383876412136176E-006   2.5779895668856998E-006   0.0000000000000000     
   1.7054969730865176E-006   3.1100208993354915E-006   0.0000000000000000     
   1.8745451266981072E-006   3.6854667982379398E-006   0.0000000000000000     
   2.0455321020483871E-006   4.3043272635930441E-006   0.0000000000000000     
   2.4382868258560928E-006   4.3320361399717468E-006   0.0000000000000000     
   2.5904412048213795E-006   4.9852829893891832E-006   0.0000000000000000     
   2.7350119479911064E-006   5.6734582401136584E-006   0.0000000000000000     
   2.8719990553652743E-006   6.3965618921451731E-006   0.0000000000000000     
   3.0014025269438834E-006   7.1545939454837283E-006   0.0000000000000000     
   2.3454425754944330E-006   4.3250485141337462E-006   0.0000000000000000     
   2.5045814406535356E-006   4.9797219205671240E-006   0.0000000000000000     
   2.6583984290406825E-006   5.6690921602513231E-006   0.0000000000000000     
   2.8068935406558737E-006   6.3931592331863437E-006   0.0000000000000000     
   2.9500667754991097E-006   7.1519231393721832E-006   0.0000000000000000     
   2.2490353714059288E-006   4.3181011594579609E-006   0.0000000000000000     
   2.4139103643487436E-006   4.9740127648896441E-006   0.0000000000000000     
   2.5756966018468301E-006   5.6644743409335491E-006   0.0000000000000000     
   2.7343940839001900E-006   6.3894858875896761E-006   0.0000000000000000     
   2.8900028105088230E-006   7.1490474048580233E-006   0.0000000000000000     
   2.1490652135905800E-006   4.3111940759443936E-006   0.0000000000000000     
   2.3184279759070025E-006   4.9681555223567427E-006   0.0000000000000000     
   2.4869064664095508E-006   5.6596047821603346E-006   0.0000000000000000     
   2.6545006850982241E-006   6.3855418553551711E-006   0.0000000000000000     
   2.8212106319730235E-006   7.1459667419412495E-006   0.0000000000000000     
   2.0455321020483871E-006   4.3043272635930441E-006   0.0000000000000000     
   2.2181342753283137E-006   4.9621501929684198E-006   0.0000000000000000     
   2.3920280227288426E-006   5.6544834839316796E-006   0.0000000000000000     
   2.5672133442499750E-006   6.3813271364828278E-006   0.0000000000000000     
   2.7436902398917109E-006   7.1426811506218601E-006   0.0000000000000000     
   0.0000000000000000        0.0000000000000000        0.0000000000000000     
   1.7212380653053292E-007   7.6172215702412383E-008   0.0000000000000000     
   3.4517623562771814E-007   2.0607678072270749E-007   0.0000000000000000     
   5.1915728729155552E-007   3.8971369506088533E-007   0.0000000000000000     
   6.9406696152204521E-007   6.2708295871694585E-007   0.0000000000000000     
   0.0000000000000000        0.0000000000000000        0.0000000000000000     
   1.5554777909381470E-007   6.9486331444257386E-008   0.0000000000000000     
   3.1326518336369667E-007   1.9502803839876241E-007   0.0000000000000000     
   4.7315221280964597E-007   3.7662512086351503E-007   0.0000000000000000     
   6.3520886743166244E-007   6.1427757883851526E-007   0.0000000000000000     
   0.0000000000000000        0.0000000000000000        0.0000000000000000     
   1.3954023155060946E-007   6.3502281422382861E-008   0.0000000000000000     
   2.8223740437172483E-007   1.8510489959522683E-007   0.0000000000000000     
   4.2809151846334615E-007   3.6480785451853186E-007   0.0000000000000000     
   5.7710257382547349E-007   6.0261114619229781E-007   0.0000000000000000     
   0.0000000000000000        0.0000000000000000        0.0000000000000000     
   1.2410116390091710E-007   5.8220065636788807E-008   0.0000000000000000     
   2.5209289865180255E-007   1.7630736431210071E-007   0.0000000000000000     
   3.8397520425265648E-007   3.5426189602593561E-007   0.0000000000000000     
   5.1974808070347865E-007   5.9208366077829372E-007   0.0000000000000000     
   0.0000000000000000        0.0000000000000000        0.0000000000000000     
   1.0923057614473774E-007   5.3639684087475231E-008   0.0000000000000000     
   2.2283166620392990E-007   1.6863543254938409E-007   0.0000000000000000     
   3.4080327017757652E-007   3.4498724538572650E-007   0.0000000000000000     
   4.6314538806567752E-007   5.8269512259650255E-007   0.0000000000000000     
   6.9406696152204521E-007   6.2708295871694585E-007   0.0000000000000000     
   8.6804433625474229E-007   9.1665265258892330E-007   0.0000000000000000     
   1.0392284894252015E-006   1.2568908575748524E-006   0.0000000000000000     
   1.2076194210334232E-006   1.6477975736747326E-006   0.0000000000000000     
   1.3732171310794075E-006   2.0893728008885641E-006   0.0000000000000000     
   6.3520886743166244E-007   6.1427757883851526E-007   0.0000000000000000     
   7.9767470872588103E-007   9.0516793928271216E-007   0.0000000000000000     
   9.5878929818843663E-007   1.2464787291550543E-006   0.0000000000000000     
   1.1185526358193292E-006   1.6382099484555425E-006   0.0000000000000000     
   1.2769647216185588E-006   2.0803615971841758E-006   0.0000000000000000     
   5.7710257382547349E-007   6.0261114619229781E-007   0.0000000000000000     
   7.2772397159087606E-007   8.9457919555529267E-007   0.0000000000000000     
   8.7840911289232290E-007   1.2367764235462845E-006   0.0000000000000000     
   1.0291579977298144E-006   1.6292028301652728E-006   0.0000000000000000     
   1.1799706261033500E-006   2.0718584154122578E-006   0.0000000000000000     
   5.1974808070347865E-007   5.9208366077829372E-007   0.0000000000000000     
   6.5819212484972717E-007   8.8488642140666557E-007   0.0000000000000000     
   7.9808793353686038E-007   1.2277839407485424E-006   0.0000000000000000     
   9.3943550676487859E-007   1.6207762188039238E-006   0.0000000000000000     
   1.0822348445337811E-006   2.0638632555728099E-006   0.0000000000000000     
   4.6314538806567752E-007   5.8269512259650255E-007   0.0000000000000000     
   5.8907916850243446E-007   8.7608961683683042E-007   0.0000000000000000     
   7.1782576012204928E-007   1.2195012807618281E-006   0.0000000000000000     
   8.4938516292452178E-007   1.6129301143714955E-006   0.0000000000000000     
   9.8375737690985185E-007   2.0563761176658327E-006   0.0000000000000000     
   1.3732171310794075E-006   2.0893728008885641E-006   0.0000000000000000     
   1.5383876412136176E-006   2.5779895668856998E-006   0.0000000000000000     
   1.7054969730865176E-006   3.1100208993354915E-006   0.0000000000000000     
   1.8745451266981072E-006   3.6854667982379398E-006   0.0000000000000000     
   2.0455321020483871E-006   4.3043272635930441E-006   0.0000000000000000     
   1.2769647216185588E-006   2.0803615971841758E-006   0.0000000000000000     
   1.4366089448964759E-006   2.5694580513031858E-006   0.0000000000000000     
   1.6000686949634310E-006   3.1020236867748046E-006   0.0000000000000000     
   1.7673439718194243E-006   3.6780585035990322E-006   0.0000000000000000     
   1.9384347754644557E-006   4.2975625017758673E-006   0.0000000000000000     
   1.1799706261033500E-006   2.0718584154122578E-006   0.0000000000000000     
   1.3335915853608025E-006   2.5613799934862802E-006   0.0000000000000000     
   1.4927654628500433E-006   3.0944043785863818E-006   0.0000000000000000     
   1.6574922585710729E-006   3.6709315707125625E-006   0.0000000000000000     
   1.8277719725238916E-006   4.2909615698648214E-006   0.0000000000000000     
   1.0822348445337811E-006   2.0638632555728099E-006   0.0000000000000000     
   1.2293355626065972E-006   2.5537553934349826E-006   0.0000000000000000     
   1.3835872767463546E-006   3.0871629747702227E-006   0.0000000000000000     
   1.5449899869530541E-006   3.6640859995785306E-006   0.0000000000000000     
   1.7135436932266954E-006   4.2845244678599080E-006   0.0000000000000000     
   9.8375737690985185E-007   2.0563761176658327E-006   0.0000000000000000     
   1.1238408766338595E-006   2.5465842511492926E-006   0.0000000000000000     
   1.2725341366523647E-006   3.0802994753263274E-006   0.0000000000000000     
   1.4298371569653672E-006   3.6575217901969383E-006   0.0000000000000000     
   1.5957499375728670E-006   4.2782511957611229E-006   0.0000000000000000     
   2.0455321020483871E-006   4.3043272635930441E-006   0.0000000000000000     
   2.2181342753283137E-006   4.9621501929684198E-006   0.0000000000000000     
   2.3920280227288426E-006   5.6544834839316796E-006   0.0000000000000000     
   2.5672133442499750E-006   6.3813271364828278E-006   0.0000000000000000     
   2.7436902398917109E-006   7.1426811506218601E-006   0.0000000000000000     
   1.9384347754644557E-006   4.2975625017758673E-006   0.0000000000000000     
   2.1131289611597958E-006   4.9560949370095702E-006   0.0000000000000000     
   2.2912143841667158E-006   5.6492150650043944E-006   0.0000000000000000     
   2.4726910444852158E-006   6.3769228857603431E-006   0.0000000000000000     
   2.6575589421152957E-006   7.1392183992774165E-006   0.0000000000000000     
   1.8277719725238916E-006   4.2909615698648214E-006   0.0000000000000000     
   2.0035117319485696E-006   4.9500879147650870E-006   0.0000000000000000     
   2.1846186640851782E-006   5.6439041441352873E-006   0.0000000000000000     
   2.3710927689337179E-006   6.3724102579754165E-006   0.0000000000000000     
   2.5629340464941875E-006   7.1356062562854812E-006   0.0000000000000000     
   1.7135436932266954E-006   4.2845244678599080E-006   0.0000000000000000     
   1.8892825876946353E-006   4.9441291262349744E-006   0.0000000000000000     
   2.0722408624842301E-006   5.6385507213243534E-006   0.0000000000000000     
   2.2624185175954810E-006   6.3677892531280469E-006   0.0000000000000000     
   2.4598155530283867E-006   7.1318447216460540E-006   0.0000000000000000     
   1.5957499375728670E-006   4.2782511957611229E-006   0.0000000000000000     
   1.7704415283979925E-006   4.9382185714192281E-006   0.0000000000000000     
   1.9540809793638724E-006   5.6331547965715986E-006   0.0000000000000000     
   2.1466682904705057E-006   6.3630598712182329E-006   0.0000000000000000     
   2.3482034617178939E-006   7.1279337953591334E-006   0.0000000000000000     
   0.0000000000000000        0.0000000000000000        0.0000000000000000     
   1.0923057614473774E-007   5.3639684087475231E-008   0.0000000000000000     
   2.2283166620392990E-007   1.6863543254938409E-007   0.0000000000000000     
   3.4080327017757652E-007   3.4498724538572650E-007   0.0000000000000000     
   4.6314538806567752E-007   5.8269512259650255E-007   0.0000000000000000     
   0.0000000000000000        0.0000000000000000        0.0000000000000000     
   9.4770105962849606E-008   4.9690971851458964E-008   0.0000000000000000     
   1.9420893979510200E-007   1.6198890472245450E-007   0.0000000000000000     
   2.9831650149675719E-007   3.3689379861298669E-007   0.0000000000000000     
   4.0709279106781514E-007   5.7440565352305547E-007   0.0000000000000000     
   0.0000000000000000        0.0000000000000000        0.0000000000000000     
   8.0561391036030973E-008   4.6303764005756820E-008   0.0000000000000000     
   1.6597995219231403E-007   1.5626758124668958E-007   0.0000000000000000     
   2.5625568346884915E-007   3.2989145172279833E-007   0.0000000000000000     
   3.5138858486563636E-007   5.6717537543408287E-007   0.0000000000000000     
   0.0000000000000000        0.0000000000000000        0.0000000000000000     
   6.6604431364281839E-008   4.3478060550368836E-008   0.0000000000000000     
   1.3814470339556595E-007   1.5147146212208929E-007   0.0000000000000000     
   2.1462081609385230E-007   3.2398020471516142E-007   0.0000000000000000     
   2.9603276945914090E-007   5.6100428832958507E-007   0.0000000000000000     
   0.0000000000000000        0.0000000000000000        0.0000000000000000     
   5.2899226947602217E-008   4.1213861485294987E-008   0.0000000000000000     
   1.1070319340485779E-007   1.4760054734865363E-007   0.0000000000000000     
   1.7341189937176670E-007   3.1916005759007592E-007   0.0000000000000000     
   2.4102534484832899E-007   5.5589239220956186E-007   0.0000000000000000     
   4.6314538806567752E-007   5.8269512259650255E-007   0.0000000000000000     
   5.8907916850243446E-007   8.7608961683683042E-007   0.0000000000000000     
   7.1782576012204928E-007   1.2195012807618281E-006   0.0000000000000000     
   8.4938516292452178E-007   1.6129301143714955E-006   0.0000000000000000     
   9.8375737690985185E-007   2.0563761176658327E-006   0.0000000000000000     
   4.0709279106781514E-007   5.7440565352305547E-007   0.0000000000000000     
   5.2026468495095333E-007   8.6820916013860507E-007   0.0000000000000000     
   6.3755905958884902E-007   1.2119890091455796E-006   0.0000000000000000     
   7.5897591498150232E-007   1.6057452005439796E-006   0.0000000000000000     
   8.8451525112891313E-007   2.0494777343338042E-006   0.0000000000000000     
   3.5138858486563636E-007   5.6717537543408287E-007   0.0000000000000000     
   4.5162825659723875E-007   8.6126542960480744E-007   0.0000000000000000     
   5.5722429887821941E-007   1.2053076914592356E-006   0.0000000000000000     
   6.6817671170857845E-007   1.5993021609973674E-006   0.0000000000000000     
   7.8448549508831575E-007   2.0432488382192025E-006   0.0000000000000000     
   2.9603276945914090E-007   5.6100428832958507E-007   0.0000000000000000     
   3.8316988344129062E-007   8.5525842523543752E-007   0.0000000000000000     
   4.7682147799016030E-007   1.1994573277027951E-006   0.0000000000000000     
   5.7698755310574994E-007   1.5936009957316592E-006   0.0000000000000000     
   6.8366810878805939E-007   2.0376894293220285E-006   0.0000000000000000     
   2.4102534484832899E-007   5.5589239220956186E-007   0.0000000000000000     
   3.1488956548310920E-007   8.5018814703049522E-007   0.0000000000000000     
   3.9635059692467185E-007   1.1944379178762596E-006   0.0000000000000000     
   4.8540843917301691E-007   1.5886417047468546E-006   0.0000000000000000     
   5.8206309222814457E-007   2.0327995076422808E-006   0.0000000000000000     
   9.8375737690985185E-007   2.0563761176658327E-006   0.0000000000000000     
   1.1238408766338595E-006   2.5465842511492926E-006   0.0000000000000000     