 <VTKFile type="UnstructuredGrid"  version="0.1"   >
 <UnstructuredGrid>
 <Piece  NumberOfPoints="          1600 "  NumberOfCells="         1024 ">
 <Points>
 <DataArray  type="Float64" NumberOfComponents="3"  format="ascii" >
  -10.000000000000000        0.0000000000000000        0.0000000000000000     
  -9.8437500000000000        0.0000000000000000        0.0000000000000000     
  -9.6875000000000000        0.0000000000000000        0.0000000000000000     
  -9.5312500000000000        0.0000000000000000        0.0000000000000000     
  -9.3750000000000000        0.0000000000000000        0.0000000000000000     
  -10.000000000000000       0.15625000000000000        0.0000000000000000     
  -9.8437500000000000       0.15625000000000000        0.0000000000000000     
  -9.6875000000000000       0.15625000000000000        0.0000000000000000     
  -9.5312500000000018       0.15625000000000003        0.0000000000000000     
  -9.3750000000000000       0.15625000000000000        0.0000000000000000     
  -10.000000000000000       0.31250000000000006        0.0000000000000000     
  -9.8437500000000000       0.31250000000000000        0.0000000000000000     
  -9.6875000000000000       0.31250000000000000        0.0000000000000000     
  -9.5312500000000000       0.31250000000000006        0.0000000000000000     
  -9.3750000000000018       0.31250000000000000        0.0000000000000000     
  -10.000000000000000       0.46875000000000000        0.0000000000000000     
  -9.8437499999999982       0.46875000000000000        0.0000000000000000     
  -9.6875000000000000       0.46875000000000000        0.0000000000000000     
  -9.5312500000000000       0.46875000000000000        0.0000000000000000     
  -9.3750000000000000       0.46875000000000000        0.0000000000000000     
  -10.000000000000000       0.62500000000000011        0.0000000000000000     
  -9.8437500000000000       0.62500000000000000        0.0000000000000000     
  -9.6875000000000018       0.62499999999999989        0.0000000000000000     
  -9.5312500000000000       0.62500000000000011        0.0000000000000000     
  -9.3750000000000018       0.62500000000000022        0.0000000000000000     
  -9.3750000000000000        0.0000000000000000        0.0000000000000000     
  -9.2187500000000000        0.0000000000000000        0.0000000000000000     
  -9.0625000000000000        0.0000000000000000        0.0000000000000000     
  -8.9062499999999982        0.0000000000000000        0.0000000000000000     
  -8.7500000000000018        0.0000000000000000        0.0000000000000000     
  -9.3750000000000000       0.15625000000000000        0.0000000000000000     
  -9.2187500000000000       0.15625000000000000        0.0000000000000000     
  -9.0625000000000018       0.15625000000000000        0.0000000000000000     
  -8.9062500000000018       0.15625000000000003        0.0000000000000000     
  -8.7500000000000000       0.15625000000000000        0.0000000000000000     
  -9.3750000000000018       0.31250000000000000        0.0000000000000000     
  -9.2187500000000000       0.31250000000000000        0.0000000000000000     
  -9.0625000000000000       0.31250000000000000        0.0000000000000000     
  -8.9062500000000000       0.31250000000000006        0.0000000000000000     
  -8.7500000000000000       0.31250000000000000        0.0000000000000000     
  -9.3750000000000000       0.46875000000000000        0.0000000000000000     
  -9.2187500000000000       0.46875000000000000        0.0000000000000000     
  -9.0625000000000018       0.46875000000000000        0.0000000000000000     
  -8.9062500000000000       0.46875000000000000        0.0000000000000000     
  -8.7500000000000018       0.46875000000000006        0.0000000000000000     
  -9.3750000000000018       0.62500000000000022        0.0000000000000000     
  -9.2187500000000036       0.62500000000000011        0.0000000000000000     
  -9.0625000000000000       0.62499999999999989        0.0000000000000000     
  -8.9062500000000000       0.62500000000000011        0.0000000000000000     
  -8.7500000000000018       0.62500000000000011        0.0000000000000000     
  -8.7500000000000018        0.0000000000000000        0.0000000000000000     
  -8.5937500000000000        0.0000000000000000        0.0000000000000000     
  -8.4375000000000018        0.0000000000000000        0.0000000000000000     
  -8.2812500000000000        0.0000000000000000        0.0000000000000000     
  -8.1250000000000000        0.0000000000000000        0.0000000000000000     
  -8.7500000000000000       0.15625000000000000        0.0000000000000000     
  -8.5937500000000000       0.15625000000000000        0.0000000000000000     
  -8.4375000000000018       0.15625000000000003        0.0000000000000000     
  -8.2812500000000000       0.15625000000000003        0.0000000000000000     
  -8.1250000000000000       0.15625000000000000        0.0000000000000000     
  -8.7500000000000000       0.31250000000000000        0.0000000000000000     
  -8.5937500000000000       0.31250000000000000        0.0000000000000000     
  -8.4375000000000018       0.31250000000000011        0.0000000000000000     
  -8.2812500000000000       0.31249999999999989        0.0000000000000000     
  -8.1250000000000000       0.31250000000000000        0.0000000000000000     
  -8.7500000000000018       0.46875000000000006        0.0000000000000000     
  -8.5937500000000000       0.46875000000000000        0.0000000000000000     
  -8.4375000000000000       0.46874999999999994        0.0000000000000000     
  -8.2812500000000000       0.46875000000000000        0.0000000000000000     
  -8.1250000000000018       0.46875000000000006        0.0000000000000000     
  -8.7500000000000018       0.62500000000000011        0.0000000000000000     
  -8.5937500000000018       0.62500000000000022        0.0000000000000000     
  -8.4375000000000000       0.62500000000000000        0.0000000000000000     
  -8.2812500000000000       0.62500000000000000        0.0000000000000000     
  -8.1250000000000018       0.62500000000000011        0.0000000000000000     
  -8.1250000000000000        0.0000000000000000        0.0000000000000000     
  -7.9687499999999991        0.0000000000000000        0.0000000000000000     
  -7.8125000000000009        0.0000000000000000        0.0000000000000000     
  -7.6562500000000009        0.0000000000000000        0.0000000000000000     
  -7.5000000000000009        0.0000000000000000        0.0000000000000000     
  -8.1250000000000000       0.15625000000000000        0.0000000000000000     
  -7.9687500000000000       0.15625000000000000        0.0000000000000000     
  -7.8125000000000009       0.15625000000000003        0.0000000000000000     
  -7.6562500000000000       0.15625000000000003        0.0000000000000000     
  -7.5000000000000000       0.15625000000000000        0.0000000000000000     
  -8.1250000000000000       0.31250000000000000        0.0000000000000000     
  -7.9687500000000000       0.31250000000000000        0.0000000000000000     
  -7.8125000000000009       0.31250000000000011        0.0000000000000000     
  -7.6562499999999982       0.31249999999999989        0.0000000000000000     
  -7.5000000000000018       0.31250000000000000        0.0000000000000000     
  -8.1250000000000018       0.46875000000000006        0.0000000000000000     
  -7.9687500000000018       0.46875000000000000        0.0000000000000000     
  -7.8125000000000009       0.46874999999999994        0.0000000000000000     
  -7.6562500000000000       0.46875000000000000        0.0000000000000000     
  -7.5000000000000009       0.46875000000000006        0.0000000000000000     
  -8.1250000000000018       0.62500000000000011        0.0000000000000000     
  -7.9687500000000009       0.62500000000000022        0.0000000000000000     
  -7.8125000000000009       0.62500000000000000        0.0000000000000000     
  -7.6562500000000009       0.62500000000000000        0.0000000000000000     
  -7.5000000000000000       0.62500000000000011        0.0000000000000000     
  -7.5000000000000009        0.0000000000000000        0.0000000000000000     
  -7.3437500000000000        0.0000000000000000        0.0000000000000000     
  -7.1875000000000009        0.0000000000000000        0.0000000000000000     
  -7.0312500000000009        0.0000000000000000        0.0000000000000000     
  -6.8750000000000009        0.0000000000000000        0.0000000000000000     
  -7.5000000000000000       0.15625000000000000        0.0000000000000000     
  -7.3437500000000000       0.15625000000000000        0.0000000000000000     
  -7.1875000000000000       0.15625000000000003        0.0000000000000000     
  -7.0312500000000000       0.15625000000000003        0.0000000000000000     
  -6.8750000000000000       0.15625000000000000        0.0000000000000000     
  -7.5000000000000018       0.31250000000000000        0.0000000000000000     
  -7.3437500000000000       0.31250000000000000        0.0000000000000000     
  -7.1875000000000018       0.31250000000000011        0.0000000000000000     
  -7.0312499999999973       0.31249999999999989        0.0000000000000000     
  -6.8750000000000000       0.31250000000000000        0.0000000000000000     
  -7.5000000000000009       0.46875000000000006        0.0000000000000000     
  -7.3437500000000000       0.46875000000000000        0.0000000000000000     
  -7.1874999999999991       0.46874999999999994        0.0000000000000000     
  -7.0312500000000000       0.46875000000000000        0.0000000000000000     
  -6.8750000000000009       0.46875000000000006        0.0000000000000000     
  -7.5000000000000000       0.62500000000000011        0.0000000000000000     
  -7.3437500000000018       0.62500000000000022        0.0000000000000000     
  -7.1874999999999991       0.62500000000000000        0.0000000000000000     
[...]
 <PointData>
 <DataArray  type="Float64" Name="disp" NumberOfComponents="3" format="ascii">
   0.0000000000000000        0.0000000000000000        0.0000000000000000     
   7.9366768228720909E-008   4.7199587611932107E-008   0.0000000000000000     
   1.4800382198757201E-007   8.3747901923091743E-008   0.0000000000000000     
   2.0955964047447545E-007   1.1393916369783919E-007   0.0000000000000000     
   2.6768270288735365E-007   1.4206759370053482E-007   0.0000000000000000     
   0.0000000000000000        0.0000000000000000        0.0000000000000000     
   6.1062674178406120E-008   3.3071213189928130E-008   0.0000000000000000     
   1.2142164791512003E-007   6.4326433648973919E-008   0.0000000000000000     
   1.8079818424406154E-007   9.4600213666238415E-008   0.0000000000000000     
   2.3891354619915043E-007   1.2472710553082262E-007   0.0000000000000000     
   0.0000000000000000        0.0000000000000000        0.0000000000000000     
   5.0273375165456749E-008   2.3669410389495819E-008   0.0000000000000000     
   1.0375192609487989E-007   5.0184713459480057E-008   0.0000000000000000     
   1.5882468046516903E-007   7.8806448628100786E-008   0.0000000000000000     
   2.1388066595322381E-007   1.0879515531350607E-007   0.0000000000000000     
   0.0000000000000000        0.0000000000000000        0.0000000000000000     
   4.4359638287898272E-008   1.7656893482763778E-008   0.0000000000000000     
   9.2053007954744459E-008   4.0032337961743763E-008   0.0000000000000000     
   1.4169996595597762E-007   6.6028313083360494E-008   0.0000000000000000     
   1.9192036924703682E-007   9.4546798494034602E-008   0.0000000000000000     
   0.0000000000000000        0.0000000000000000        0.0000000000000000     
   4.0682230643756191E-008   1.3696376741860636E-008   0.0000000000000000     
   8.3383244922606614E-008   3.2578903762898616E-008   0.0000000000000000     
   1.2748487753466687E-007   5.5736251531951727E-008   0.0000000000000000     
   1.7236896317805254E-007   8.2257090517857722E-008   0.0000000000000000     
   2.6768270288735365E-007   1.4206759370053482E-007   0.0000000000000000     
   3.2538979745596428E-007   1.7174114630703759E-007   0.0000000000000000     
   3.8317094853740842E-007   2.0382271033920151E-007   0.0000000000000000     
   4.4088448952062228E-007   2.3848890823037917E-007   0.0000000000000000     
   4.9838875379454246E-007   2.7591636241392333E-007   0.0000000000000000     
   2.3891354619915043E-007   1.2472710553082262E-007   0.0000000000000000     
   2.9559339390917620E-007   1.5551711777602038E-007   0.0000000000000000     
   3.5108097588240651E-007   1.8768208391189612E-007   0.0000000000000000     
   4.0572393772197822E-007   2.2190929369270692E-007   0.0000000000000000     
   4.5986992503102850E-007   2.5888603687271004E-007   0.0000000000000000     
   2.1388066595322381E-007   1.0879515531350607E-007   0.0000000000000000     
   2.6763596255024546E-007   1.3965346601614485E-007   0.0000000000000000     
   3.2011485950464171E-007   1.7185238556566953E-007   0.0000000000000000     
   3.7166869837912171E-007   2.0610501187403333E-007   0.0000000000000000     
   4.2264882073639498E-007   2.4312444285318954E-007   0.0000000000000000     
   1.9192036924703682E-007   9.4546798494034602E-008   0.0000000000000000     
   2.4158054621354864E-007   1.2475068625586009E-007   0.0000000000000000     
   2.9053271096189006E-007   1.5684651809362491E-007   0.0000000000000000     
   3.3887554902862598E-007   1.9130174814779061E-007   0.0000000000000000     
   3.8670774595032096E-007   2.2858383055881850E-007   0.0000000000000000     
   1.7236896317805254E-007   8.2257090517857722E-008   0.0000000000000000     
   2.1749018773346241E-007   1.1140927372361512E-007   0.0000000000000000     
   2.6259464181192790E-007   1.4317738428886545E-007   0.0000000000000000     
   3.0750126720706383E-007   1.7772518788741098E-007   0.0000000000000000     
   3.5202900571248489E-007   2.1521645019305398E-007   0.0000000000000000     
   4.9838875379454246E-007   2.7591636241392333E-007   0.0000000000000000     
   5.5556466265941086E-007   3.1627251484775163E-007   0.0000000000000000     
   6.1238348906069265E-007   3.5968808558804315E-007   0.0000000000000000     
   6.6883909385515757E-007   4.0628461421554147E-007   0.0000000000000000     
   7.2492533789957667E-007   4.5618364031099092E-007   0.0000000000000000     
   4.5986992503102850E-007   2.5888603687271004E-007   0.0000000000000000     
   5.1379344187754454E-007   2.9917535239502857E-007   0.0000000000000000     
   5.6747642618891397E-007   3.4284327595824889E-007   0.0000000000000000     
   6.2082767435737417E-007   3.8983159244982335E-007   0.0000000000000000     
   6.7375598277516305E-007   4.4008208675720431E-007   0.0000000000000000     
   4.2264882073639498E-007   2.4312444285318954E-007   0.0000000000000000     
   4.7333635123322033E-007   2.8349314886419340E-007   0.0000000000000000     
   5.2373154690255579E-007   3.2727109006450916E-007   0.0000000000000000     
   5.7376444787140876E-007   3.7438759906070270E-007   0.0000000000000000     
   6.2336509426678694E-007   4.2477200845934045E-007   0.0000000000000000     
   3.8670774595032096E-007   2.2858383055881850E-007   0.0000000000000000     
   4.3411152040797455E-007   2.6908267460426058E-007   0.0000000000000000     
   4.8110322366032749E-007   3.1287801011003039E-007   0.0000000000000000     
   5.2768274011055581E-007   3.5997202203913254E-007   0.0000000000000000     
   5.7384995416183545E-007   4.1036689535457112E-007   0.0000000000000000     
   3.5202900571248489E-007   2.1521645019305398E-007   0.0000000000000000     
   3.9603707908334300E-007   2.5580069996424404E-007   0.0000000000000000     
   4.3954582892093874E-007   2.9957051829801944E-007   0.0000000000000000     
   4.8261587678810999E-007   3.4660424937606569E-007   0.0000000000000000     
   5.2530784424769472E-007   3.9698023738006888E-007   0.0000000000000000     
   7.2492533789957667E-007   4.5618364031099092E-007   0.0000000000000000     
   7.8063666473329506E-007   5.0948313717663144E-007   0.0000000000000000     
   8.3596984862596086E-007   5.6618681300068810E-007   0.0000000000000000     
   8.9092224652979553E-007   6.2627480969288199E-007   0.0000000000000000     
   9.4549121539702223E-007   6.8972726916293395E-007   0.0000000000000000     
   6.7375598277516305E-007   4.4008208675720431E-007   0.0000000000000000     
   7.2619262192854287E-007   4.9355666232907817E-007   0.0000000000000000     
   7.7815875867987673E-007   5.5029769685906701E-007   0.0000000000000000     
   8.2969803398555188E-007   6.1036768660202676E-007   0.0000000000000000     
   8.8085408880195651E-007   6.7382912781281345E-007   0.0000000000000000     
   6.2336509426678694E-007   4.2477200845934045E-007   0.0000000000000000     
   6.7248140757218592E-007   4.7837615173529939E-007   0.0000000000000000     
   7.2113283469705492E-007   5.3524186583670138E-007   0.0000000000000000     
   7.6935670390732989E-007   5.9543348857997900E-007   0.0000000000000000     
   8.1719034346894889E-007   6.5901535778156574E-007   0.0000000000000000     
   5.7384995416183545E-007   4.1036689535457112E-007   0.0000000000000000     
   6.1960567571862657E-007   4.6406851871462896E-007   0.0000000000000000     
   6.6495441669053219E-007   5.2109759555870255E-007   0.0000000000000000     
   7.0990161448843901E-007   5.8147853302146722E-007   0.0000000000000000     
   7.5445270652323417E-007   6.4523573823759806E-007   0.0000000000000000     
   5.2530784424769472E-007   3.9698023738006888E-007   0.0000000000000000     
   5.6766808042226723E-007   4.5076067658640103E-007   0.0000000000000000     
   6.0968584467334616E-007   5.0794316165018208E-007   0.0000000000000000     
   6.5133612392218740E-007   5.6850913732121887E-007   0.0000000000000000     
   6.9259390509004634E-007   6.3244004834931827E-007   0.0000000000000000     
   9.4549121539702223E-007   6.8972726916293395E-007   0.0000000000000000     
   9.9967021376185466E-007   7.5652600571977268E-007   0.0000000000000000     
   1.0534371064864757E-006   8.2665952326915709E-007   0.0000000000000000     
   1.1067658600150581E-006   9.0011799811605297E-007   0.0000000000000000     
   1.1596304407917759E-006   9.7689160656542643E-007   0.0000000000000000     
   8.8085408880195651E-007   6.7382912781281345E-007   0.0000000000000000     
   9.3165783346110890E-007   7.4072581411659684E-007   0.0000000000000000     
   9.8208925579755222E-007   8.1102672861979986E-007   0.0000000000000000     
   1.0321156130214596E-006   8.8468215179915867E-007   0.0000000000000000     
   1.0817041623430047E-006   9.6164236413141015E-007   0.0000000000000000     
   8.1719034346894889E-007   6.5901535778156574E-007   0.0000000000000000     
   8.6466161557984927E-007   7.2603289890404475E-007   0.0000000000000000     
   9.1176051816597264E-007   7.9645588799460428E-007   0.0000000000000000     
   9.5846758308526154E-007   8.7023518874658204E-007   0.0000000000000000     
   1.0047633421956594E-006   9.4732166485331787E-007   0.0000000000000000     
   7.5445270652323417E-007   6.4523573823759806E-007   0.0000000000000000     
   7.9861250685680613E-007   7.1238480035943163E-007   0.0000000000000000     
   8.4238333615504989E-007   7.8290603660995015E-007   0.0000000000000000     
   8.8576689173486230E-007   8.5677094622979734E-007   0.0000000000000000     
   9.2876487091313862E-007   9.3395102845961659E-007   0.0000000000000000     
   6.9259390509004634E-007   6.3244004834931827E-007   0.0000000000000000     
   7.3344145403071094E-007   6.9971905876007310E-007   0.0000000000000000     
   7.7389015232809818E-007   7.7033620968221877E-007   0.0000000000000000     
   8.1395866049865796E-007   8.4428326152027840E-007   0.0000000000000000     
   8.5366563905884089E-007   9.2155197467877425E-007   0.0000000000000000     
   1.1596304407917759E-006   9.7689160656542643E-007   0.0000000000000000     
   1.2120105748972093E-006   1.0569661730657240E-006   0.0000000000000000     
   1.2639090269575663E-006   1.1403101146393157E-006   0.0000000000000000     
   1.3153343212354601E-006   1.2268874964520507E-006   0.0000000000000000     
   1.3662949819935051E-006   1.3166623836697797E-006   0.0000000000000000     
   1.0817041623430047E-006   9.6164236413141015E-007   0.0000000000000000     
   1.1308292948144182E-006   1.0418632130961728E-006   0.0000000000000000     
   1.1794939368561558E-006   1.1253228141845939E-006   0.0000000000000000     
   1.2277081487307305E-006   1.2120048498907033E-006   0.0000000000000000     
   1.2754819907006549E-006   1.3018930027085310E-006   0.0000000000000000     
   1.0047633421956594E-006   9.4732166485331787E-007   0.0000000000000000     
   1.0506323194521800E-006   1.0276714843300966E-006   0.0000000000000000     
   1.0960750071981255E-006   1.1112620324799938E-006   0.0000000000000000     
   1.1410958898738682E-006   1.1980759989280305E-006   0.0000000000000000     
   1.1856994519197822E-006   1.2880960732992297E-006   0.0000000000000000     
   9.2876487091313862E-007   9.3395102845961659E-007   0.0000000000000000     
   9.7137811516297088E-007   1.0144178266121408E-006   0.0000000000000000     
   1.0136040425822318E-006   1.0981430602884624E-006   0.0000000000000000     
   1.0554392154249894E-006   1.1850984931617624E-006   0.0000000000000000     
   1.0968801959453115E-006   1.2752558889052217E-006   0.0000000000000000     
   8.5366563905884089E-007   9.2155197467877425E-007   0.0000000000000000     
   8.9302514829926619E-007   1.0021290797869517E-006   0.0000000000000000     
   9.3203284760723259E-007   1.0859811883729486E-006   0.0000000000000000     
   9.7067979614420933E-007   1.1730698821896281E-006   0.0000000000000000     
   1.0089570530716657E-006   1.2633567429898516E-006   0.0000000000000000     
   1.3662949819935051E-006   1.3166623836697797E-006   0.0000000000000000     
   1.4167962542333278E-006   1.4096008327554063E-006   0.0000000000000000     
   1.4668302659126097E-006   1.5056768653600545E-006   0.0000000000000000     
   1.5163858657280433E-006   1.6048664944319018E-006   0.0000000000000000     
   1.5654519023763222E-006   1.7071457329191246E-006   0.0000000000000000     
   1.2754819907006549E-006   1.3018930027085310E-006   0.0000000000000000     
   1.3228224131180234E-006   1.3949677168929724E-006   0.0000000000000000     
   1.3697239266932553E-006   1.4911964837423882E-006   0.0000000000000000     
   1.4161779322263521E-006   1.5905435563160042E-006   0.0000000000000000     
   1.4621758305173158E-006   1.6929731876730479E-006   0.0000000000000000     
   1.1856994519197822E-006   1.2880960732992297E-006   0.0000000000000000     
   1.2298888210206410E-006   1.3813019531825312E-006   0.0000000000000000     
   1.2736616978388202E-006   1.4776613680225481E-006   0.0000000000000000     
   1.3170144262810950E-006   1.5771390552278095E-006   0.0000000000000000     
   1.3599433502542433E-006   1.6796997522068483E-006   0.0000000000000000     
   1.0968801959453115E-006   1.2752558889052217E-006   0.0000000000000000     
   1.1379243885810861E-006   1.3685868877637032E-006   0.0000000000000000     
   1.1785725665054890E-006   1.4650626362688003E-006   0.0000000000000000     
   1.2188263450755147E-006   1.5646541575237849E-006   0.0000000000000000     
   1.2586873396481583E-006   1.6673324746319319E-006   0.0000000000000000     
   1.0089570530716657E-006   1.2633567429898516E-006   0.0000000000000000     
   1.0468580264392650E-006   1.3568058667761106E-006   0.0000000000000000     
   1.0843855198494483E-006   1.4533914065494134E-006   0.0000000000000000     
   1.1215446857928525E-006   1.5530900295603982E-006   0.0000000000000000     
   1.1583406767601138E-006   1.6558784030597035E-006   0.0000000000000000     
   1.5654519023763222E-006   1.7071457329191246E-006   0.0000000000000000     
   1.6140206928720232E-006   1.8124880104949736E-006   0.0000000000000000     
   1.6620984275012553E-006   1.9208564237329864E-006   0.0000000000000000     
   1.7096947648680112E-006   2.0322114859317734E-006   0.0000000000000000     
   1.7568193635762838E-006   2.1465137103899453E-006   0.0000000000000000     
   1.4621758305173158E-006   1.6929731876730479E-006   0.0000000000000000     
   1.5077113285403909E-006   1.7984510871518607E-006   0.0000000000000000     
   1.5527873579667970E-006   1.9069487892072469E-006   0.0000000000000000     
   1.5974091566419982E-006   2.0184392845731273E-006   0.0000000000000000     
   1.6415819624114578E-006   2.1328955639834205E-006   0.0000000000000000     
   1.3599433502542433E-006   1.6796997522068483E-006   0.0000000000000000     
   1.4024455590350863E-006   1.7853095333260787E-006   0.0000000000000000     
   1.4445211233806242E-006   1.8939398207834496E-006   0.0000000000000000     
   1.4861708594179044E-006   2.0055633737347930E-006   0.0000000000000000     
   1.5273955832739744E-006   2.1201529513359449E-006   0.0000000000000000     
   1.2586873396481583E-006   1.6673324746319319E-006   0.0000000000000000     
   1.2981564484037852E-006   1.7730678712812088E-006   0.0000000000000000     
   1.3372317008162366E-006   1.8818276734983650E-006   0.0000000000000000     
   1.3759104091827241E-006   1.9935784678948426E-006   0.0000000000000000     
   1.4141898858004584E-006   2.1082868410820858E-006   0.0000000000000000     
   1.1583406767601138E-006   1.6558784030597035E-006   0.0000000000000000     
   1.1947770606941657E-006   1.7617306232808342E-006   0.0000000000000000     
   1.2308510673471361E-006   1.8706105023887669E-006   0.0000000000000000     
   1.2665583419234504E-006   1.9824792815313457E-006   0.0000000000000000     
   1.3018945296275338E-006   2.0972982018564138E-006   0.0000000000000000     
   0.0000000000000000        0.0000000000000000        0.0000000000000000     
   4.0682230643756191E-008   1.3696376741860636E-008   0.0000000000000000     
   8.3383244922606614E-008   3.2578903762898616E-008   0.0000000000000000     
   1.2748487753466687E-007   5.5736251531951727E-008   0.0000000000000000     
   1.7236896317805254E-007   8.2257090517857722E-008   0.0000000000000000     
   0.0000000000000000        0.0000000000000000        0.0000000000000000     
   3.7071952039339341E-008   1.0655396812320517E-008   0.0000000000000000     
   7.5304275244846125E-008   2.6710521270560845E-008   0.0000000000000000     
   1.1453803072937964E-007   4.7434094371079327E-008   0.0000000000000000     
   1.5461427960579907E-007   7.2094837110234299E-008   0.0000000000000000     
   0.0000000000000000        0.0000000000000000        0.0000000000000000     
   3.3239733114090080E-008   8.2207798332996020E-009   0.0000000000000000     
   6.7390884441790614E-008   2.2019356094276945E-008   0.0000000000000000     
   1.0240915590811193E-007   4.0759215587030996E-008   0.0000000000000000     
   1.3825024943806433E-007   6.3803845115660695E-008   0.0000000000000000     
   0.0000000000000000        0.0000000000000000        0.0000000000000000     
   2.9366537215734102E-008   6.2841743173595791E-009   0.0000000000000000     
   5.9721144852254669E-008   1.8274087644076044E-008   0.0000000000000000     
   9.0945762148823156E-008   3.5382375063365161E-008   0.0000000000000000     
   1.2292232834470106E-007   5.7021671658442673E-008   0.0000000000000000     
   0.0000000000000000        0.0000000000000000        0.0000000000000000     
   2.5633327691997155E-008   4.7372287770621408E-009   0.0000000000000000     
   5.2373128815052831E-008   1.5243395329987254E-008   0.0000000000000000     
   7.9995358529472643E-008   3.0974332683640242E-008   0.0000000000000000     
   1.0827597199556214E-007   5.1385873862885953E-008   0.0000000000000000     
   1.7236896317805254E-007   8.2257090517857722E-008   0.0000000000000000     
   2.1749018773346241E-007   1.1140927372361512E-007   0.0000000000000000     
   2.6259464181192790E-007   1.4317738428886545E-007   0.0000000000000000     
   3.0750126720706383E-007   1.7772518788741098E-007   0.0000000000000000     
   3.5202900571248489E-007   2.1521645019305398E-007   0.0000000000000000     
   1.5461427960579907E-007   7.2094837110234299E-008   0.0000000000000000     
   1.9534930295754358E-007   1.0007873247141032E-007   0.0000000000000000     
   2.3646026175037202E-007   1.3124081138609697E-007   0.0000000000000000     
   2.7763953692062291E-007   1.6555336677280997E-007   0.0000000000000000     
   3.1857950940463479E-007   2.0298869155006519E-007   0.0000000000000000     
   1.3825024943806433E-007   6.3803845115660695E-008   0.0000000000000000     
   1.7482779978607055E-007   9.0604601845451780E-008   0.0000000000000000     
   2.1188717302420382E-007   1.2096432438643719E-007   0.0000000000000000     
   2.4913166805394983E-007   1.5477372170983664E-007   0.0000000000000000     
   2.8626458377679414E-007   1.9192350278686990E-007   0.0000000000000000     
   1.2292232834470106E-007   5.7021671658442673E-008   0.0000000000000000     
   1.5551695913250172E-007   8.2681430015496953E-008   0.0000000000000000     
   1.8853247601824587E-007   1.1215837273260673E-007   0.0000000000000000     
   2.2175587696130615E-007   1.4532603991082337E-007   0.0000000000000000     
   2.5497415992105543E-007   1.8205797165119827E-007   0.0000000000000000     
   1.0827597199556214E-007   5.1385873862885953E-008   0.0000000000000000     
   1.3700806191029544E-007   7.6003765151303157E-008   0.0000000000000000     
   1.6605327111732043E-007   1.0463340586732593E-007   0.0000000000000000     
   1.9529037999695354E-007   1.3715010858810239E-007   0.0000000000000000     
   2.2459816892951118E-007   1.7342918589078039E-007   0.0000000000000000     
   3.5202900571248489E-007   2.1521645019305398E-007   0.0000000000000000     
   3.9603707908334300E-007   2.5580069996424404E-007   0.0000000000000000     