 <VTKFile type="UnstructuredGrid"  version="0.1"   >
 <UnstructuredGrid>
 <Piece  NumberOfPoints="           400 "  NumberOfCells="          256 ">
 <Points>
 <DataArray  type="Float64" NumberOfComponents="3"  format="ascii" >
  -5.0000000000000000        2.0000000000000000        0.0000000000000000     
  -4.3750000000000000        2.0000000000000000        0.0000000000000000     
  -3.7499999999999996        2.0000000000000000        0.0000000000000000     
  -3.1250000000000000        2.0000000000000000        0.0000000000000000     
  -2.5000000000000000        2.0000000000000000        0.0000000000000000     
  -5.0000000000000000        2.1875000000000000        0.0000000000000000     
  -4.3750000000000000        2.1875000000000000        0.0000000000000000     
  -3.7500000000000000        2.1875000000000000        0.0000000000000000     
  -3.1250000000000000        2.1875000000000000        0.0000000000000000     
  -2.5000000000000000        2.1875000000000000        0.0000000000000000     
  -5.0000000000000000        2.3750000000000000        0.0000000000000000     
  -4.3750000000000000        2.3750000000000000        0.0000000000000000     
  -3.7499999999999996        2.3750000000000000        0.0000000000000000     
  -3.1250000000000000        2.3750000000000000        0.0000000000000000     
  -2.5000000000000000        2.3750000000000000        0.0000000000000000     
  -5.0000000000000000        2.5625000000000000        0.0000000000000000     
  -4.3750000000000000        2.5625000000000000        0.0000000000000000     
  -3.7499999999999991        2.5625000000000000        0.0000000000000000     
  -3.1250000000000000        2.5625000000000000        0.0000000000000000     
  -2.4999999999999996        2.5625000000000000        0.0000000000000000     
  -5.0000000000000009        2.7500000000000000        0.0000000000000000     
  -4.3749999999999991        2.7500000000000000        0.0000000000000000     
  -3.7500000000000000        2.7500000000000004        0.0000000000000000     
  -3.1249999999999996        2.7500000000000000        0.0000000000000000     
  -2.4999999999999996        2.7500000000000000        0.0000000000000000     
  -2.5000000000000000        2.0000000000000000        0.0000000000000000     
  -1.8749999999999998        2.0000000000000000        0.0000000000000000     
  -1.2500000000000000        2.0000000000000000        0.0000000000000000     
 -0.62499999999999989        2.0000000000000000        0.0000000000000000     
   0.0000000000000000        2.0000000000000004        0.0000000000000000     
  -2.5000000000000000        2.1875000000000000        0.0000000000000000     
  -1.8749999999999996        2.1875000000000000        0.0000000000000000     
  -1.2500000000000000        2.1875000000000000        0.0000000000000000     
 -0.62500000000000000        2.1875000000000000        0.0000000000000000     
   0.0000000000000000        2.1875000000000000        0.0000000000000000     
  -2.5000000000000000        2.3750000000000000        0.0000000000000000     
  -1.8749999999999998        2.3749999999999996        0.0000000000000000     
  -1.2500000000000000        2.3750000000000000        0.0000000000000000     
 -0.62500000000000011        2.3750000000000004        0.0000000000000000     
   0.0000000000000000        2.3749999999999996        0.0000000000000000     
  -2.4999999999999996        2.5625000000000000        0.0000000000000000     
  -1.8750000000000002        2.5625000000000004        0.0000000000000000     
  -1.2500000000000000        2.5625000000000000        0.0000000000000000     
 -0.62500000000000000        2.5625000000000000        0.0000000000000000     
   0.0000000000000000        2.5625000000000009        0.0000000000000000     
  -2.4999999999999996        2.7500000000000000        0.0000000000000000     
  -1.8750000000000002        2.7500000000000009        0.0000000000000000     
  -1.2500000000000000        2.7500000000000004        0.0000000000000000     
 -0.62500000000000000        2.7500000000000000        0.0000000000000000     
   0.0000000000000000        2.7500000000000004        0.0000000000000000     
   0.0000000000000000        2.0000000000000004        0.0000000000000000     
  0.62499999999999989        2.0000000000000000        0.0000000000000000     
   1.2500000000000000        2.0000000000000000        0.0000000000000000     
   1.8750000000000002        2.0000000000000004        0.0000000000000000     
   2.5000000000000000        2.0000000000000004        0.0000000000000000     
   0.0000000000000000        2.1875000000000000        0.0000000000000000     
  0.62500000000000000        2.1875000000000000        0.0000000000000000     
   1.2500000000000000        2.1875000000000000        0.0000000000000000     
   1.8750000000000000        2.1875000000000000        0.0000000000000000     
   2.4999999999999996        2.1875000000000000        0.0000000000000000     
   0.0000000000000000        2.3749999999999996        0.0000000000000000     
  0.62500000000000000        2.3750000000000000        0.0000000000000000     
   1.2500000000000002        2.3750000000000000        0.0000000000000000     
   1.8749999999999998        2.3749999999999991        0.0000000000000000     
   2.5000000000000000        2.3750000000000000        0.0000000000000000     
   0.0000000000000000        2.5625000000000009        0.0000000000000000     
  0.62500000000000000        2.5625000000000000        0.0000000000000000     
   1.2500000000000000        2.5625000000000000        0.0000000000000000     
   1.8750000000000004        2.5625000000000009        0.0000000000000000     
   2.4999999999999996        2.5625000000000000        0.0000000000000000     
   0.0000000000000000        2.7500000000000004        0.0000000000000000     
  0.62500000000000000        2.7500000000000000        0.0000000000000000     
   1.2500000000000002        2.7500000000000000        0.0000000000000000     
   1.8750000000000000        2.7500000000000000        0.0000000000000000     
   2.5000000000000000        2.7500000000000000        0.0000000000000000     
   2.5000000000000000        2.0000000000000004        0.0000000000000000     
   3.1250000000000000        2.0000000000000000        0.0000000000000000     
   3.7499999999999996        2.0000000000000000        0.0000000000000000     
   4.3749999999999991        2.0000000000000000        0.0000000000000000     
   5.0000000000000000        2.0000000000000000        0.0000000000000000     
   2.4999999999999996        2.1875000000000000        0.0000000000000000     
   3.1250000000000000        2.1875000000000000        0.0000000000000000     
   3.7500000000000000        2.1875000000000000        0.0000000000000000     
   4.3750000000000000        2.1875000000000000        0.0000000000000000     
   5.0000000000000000        2.1875000000000000        0.0000000000000000     
   2.5000000000000000        2.3750000000000000        0.0000000000000000     
   3.1249999999999996        2.3750000000000000        0.0000000000000000     
   3.7500000000000004        2.3750000000000000        0.0000000000000000     
   4.3750000000000000        2.3750000000000000        0.0000000000000000     
   5.0000000000000000        2.3750000000000000        0.0000000000000000     
   2.4999999999999996        2.5625000000000000        0.0000000000000000     
   3.1250000000000000        2.5625000000000000        0.0000000000000000     
   3.7500000000000000        2.5625000000000000        0.0000000000000000     
   4.3750000000000000        2.5625000000000000        0.0000000000000000     
   5.0000000000000000        2.5625000000000000        0.0000000000000000     
   2.5000000000000000        2.7500000000000000        0.0000000000000000     
   3.1249999999999996        2.7499999999999996        0.0000000000000000     
   3.7499999999999996        2.7500000000000000        0.0000000000000000     
   4.3750000000000000        2.7499999999999996        0.0000000000000000     
   5.0000000000000009        2.7500000000000000        0.0000000000000000     
  -5.0000000000000009        2.7500000000000000        0.0000000000000000     
  -4.3749999999999991        2.7500000000000000        0.0000000000000000     
  -3.7500000000000000        2.7500000000000004        0.0000000000000000     
  -3.1249999999999996        2.7500000000000000        0.0000000000000000     
  -2.4999999999999996        2.7500000000000000        0.0000000000000000     
  -4.9999999999999991        2.9375000000000000        0.0000000000000000     
  -4.3750000000000000        2.9375000000000000        0.0000000000000000     
  -3.7500000000000000        2.9375000000000000        0.0000000000000000     
  -3.1250000000000004        2.9375000000000004        0.0000000000000000     
  -2.5000000000000000        2.9375000000000000        0.0000000000000000     
  -5.0000000000000000        3.1250000000000000        0.0000000000000000     
  -4.3750000000000000        3.1250000000000000        0.0000000000000000     
  -3.7499999999999991        3.1249999999999996        0.0000000000000000     
  -3.1249999999999996        3.1250000000000000        0.0000000000000000     
  -2.5000000000000000        3.1250000000000000        0.0000000000000000     
  -5.0000000000000000        3.3124999999999996        0.0000000000000000     
  -4.3750000000000000        3.3124999999999996        0.0000000000000000     
  -3.7500000000000000        3.3125000000000004        0.0000000000000000     
  -3.1250000000000000        3.3125000000000000        0.0000000000000000     
  -2.4999999999999996        3.3125000000000000        0.0000000000000000     
  -5.0000000000000018        3.5000000000000004        0.0000000000000000     
  -4.3750000000000000        3.5000000000000004        0.0000000000000000     
  -3.7499999999999991        3.4999999999999991        0.0000000000000000     
[...]
 <PointData>
 <DataArray  type="Float64" Name="disp" NumberOfComponents="3" format="ascii">
   3.4214520576441341E-007   2.0384566551479835E-006   0.0000000000000000     
   3.7887600265890038E-007   2.5292521471178310E-006   0.0000000000000000     
   4.1403779285282565E-007   3.0649575211419355E-006   0.0000000000000000     
   4.4763289932300810E-007   3.6436241820167458E-006   0.0000000000000000     
   4.7966364504626640E-007   4.2633035345387094E-006   0.0000000000000000     
   2.1369230457052735E-007   2.0357095932280342E-006   0.0000000000000000     
   2.3665078224167882E-007   2.5266216712556346E-006   0.0000000000000000     
   2.5862766847191741E-007   3.0624428061970323E-006   0.0000000000000000     
   2.7962475901708494E-007   3.6412245723840834E-006   0.0000000000000000     
   2.9964384963302318E-007   4.2610185441486440E-006   0.0000000000000000     
   8.5444814139993260E-008   2.0342300229269838E-006   0.0000000000000000     
   9.4628634201257744E-008   2.5252051561695909E-006   0.0000000000000000     
   1.0341960739349572E-007   3.0610887241404978E-006   0.0000000000000000     
   1.1181851858392911E-007   3.6399324708429442E-006   0.0000000000000000     
   1.1982615263977979E-007   4.2597881402801689E-006   0.0000000000000000     
  -4.2720387898770887E-008   2.0340184420792765E-006   0.0000000000000000     
  -4.7312305276665573E-008   2.5250026860318088E-006   0.0000000000000000     
  -5.1707685752670358E-008   3.0608952348302762E-006   0.0000000000000000     
  -5.5906994857159971E-008   3.6397478710159871E-006   0.0000000000000000     
  -5.9910698120509339E-008   4.2596123771302450E-006   0.0000000000000000     
  -1.7092642391734711E-007   2.0350753485193563E-006   0.0000000000000000     
  -1.8929390000639386E-007   2.5260143450143935E-006   0.0000000000000000     
  -2.0687550633681189E-007   3.0618622981243132E-006   0.0000000000000000     
  -2.2367295418688304E-007   3.6406707665258738E-006   0.0000000000000000     
  -2.3968795483488955E-007   4.2604913088958385E-006   0.0000000000000000     
   4.7966364504626640E-007   4.2633035345387094E-006   0.0000000000000000     
   5.1013194347614711E-007   4.9220461254328846E-006   0.0000000000000000     
   5.3903806997310827E-007   5.6178990691387685E-006   0.0000000000000000     
   5.6638189037433567E-007   6.3489086220244712E-006   0.0000000000000000     
   5.9216327051701502E-007   7.1131210404580989E-006   0.0000000000000000     
   2.9964384963302318E-007   4.2610185441486440E-006   0.0000000000000000     
   3.1868642170352888E-007   4.9198754322185869E-006   0.0000000000000000     
   3.3675269912421817E-007   5.6158424929058603E-006   0.0000000000000000     
   3.5384259141866205E-007   6.3469661189184299E-006   0.0000000000000000     
   3.6995600811043164E-007   7.1112927029642598E-006   0.0000000000000000     
   1.1982615263977979E-007   4.2597881402801689E-006   0.0000000000000000     
   1.2744315892284685E-007   4.9187065910756679E-006   0.0000000000000000     
   1.3466964477323865E-007   5.6147351403339595E-006   0.0000000000000000     
   1.4150558202564076E-007   6.3459202197798220E-006   0.0000000000000000     
   1.4795094251473861E-007   7.1103082611380203E-006   0.0000000000000000     
  -5.9910698120509339E-008   4.2596123771302450E-006   0.0000000000000000     
  -6.3719174933398490E-008   4.9185396432646600E-006   0.0000000000000000     
  -6.7332460127728199E-008   5.6145769897120301E-006   0.0000000000000000     
  -7.0750502395704586E-008   6.3457708443154647E-006   0.0000000000000000     
  -7.3973250429533813E-008   7.1101676349180662E-006   0.0000000000000000     
  -2.3968795483488955E-007   4.2604913088958385E-006   0.0000000000000000     
  -2.5492190993270668E-007   4.9193746300460959E-006   0.0000000000000000     
  -2.6937498262658034E-007   5.6153680193290365E-006   0.0000000000000000     
  -2.8304702643635018E-007   6.3465179122321852E-006   0.0000000000000000     
  -2.9593789488185519E-007   7.1108707442430634E-006   0.0000000000000000     
   5.9216327051701502E-007   7.1131210404580989E-006   0.0000000000000000     
   6.1638210277691876E-007   7.9085827526551030E-006   0.0000000000000000     
   6.3903838568416604E-007   8.7333408742203223E-006   0.0000000000000000     
   6.6013214430746308E-007   9.5854426926059420E-006   0.0000000000000000     
   6.7966340371551546E-007   1.0462935495264139E-005   0.0000000000000000     
   3.6995600811043164E-007   7.1112927029642598E-006   0.0000000000000000     
   3.8509286739963225E-007   7.9068687646912545E-006   0.0000000000000000     
   3.9925312219250716E-007   8.7317413315070880E-006   0.0000000000000000     
   4.1243673407183370E-007   9.5839575577593720E-006   0.0000000000000000     
   4.2464366462038909E-007   1.0461564597795713E-005   0.0000000000000000     
   1.4795094251473861E-007   7.1103082611380203E-006   0.0000000000000000     
   1.5400569735904061E-007   7.9059458170135386E-006   0.0000000000000000     
   1.5966981481234596E-007   8.7308799235321220E-006   0.0000000000000000     
   1.6494326241227623E-007   9.5831577376997258E-006   0.0000000000000000     
   1.6982600769645352E-007   1.0460826416522300E-005   0.0000000000000000     
  -7.3973250429533813E-008   7.1101676349180662E-006   0.0000000000000000     
  -7.7000661362233868E-008   7.9058139186826548E-006   0.0000000000000000     
  -7.9832726090071773E-008   8.7307567700509482E-006   0.0000000000000000     
  -8.2469443950126718E-008   9.5830433927843723E-006   0.0000000000000000     
  -8.4910814279477514E-008   1.0460720990644356E-005   0.0000000000000000     
  -2.9593789488185519E-007   7.1108707442430634E-006   0.0000000000000000     
  -3.0804746278156875E-007   7.9064730787593129E-006   0.0000000000000000     
  -3.1937569014849999E-007   8.7313719908190938E-006   0.0000000000000000     
  -3.2992255829429264E-007   9.5836146833706735E-006   0.0000000000000000     
  -3.3968804853058976E-007   1.0461248359362337E-005   0.0000000000000000     
   6.7966340371551546E-007   1.0462935495264139E-005   0.0000000000000000     
   6.9763212795574896E-007   1.1363866512918902E-005   0.0000000000000000     
   7.1403803699046895E-007   1.2286282749381458E-005   0.0000000000000000     
   7.2888078976070028E-007   1.3228231151734829E-005   0.0000000000000000     
   7.4216004520746788E-007   1.4187758667062048E-005   0.0000000000000000     
   4.2464366462038909E-007   1.0461564597795713E-005   0.0000000000000000     
   4.3587388186724151E-007   1.1362609643527418E-005   0.0000000000000000     
   4.4612737962661942E-007   1.2285140037120536E-005   0.0000000000000000     
   4.5540415815904156E-007   1.3227203158304812E-005   0.0000000000000000     
   4.6370421772502712E-007   1.4186846386809989E-005   0.0000000000000000     
   1.6982600769645352E-007   1.0460826416522300E-005   0.0000000000000000     
   1.7431803289676532E-007   1.1361933118240484E-005   0.0000000000000000     
   1.7841937902216265E-007   1.2284525006033667E-005   0.0000000000000000     
   1.8213010177586212E-007   1.3226649244315915E-005   0.0000000000000000     
   1.8545025686108050E-007   1.4186352997501307E-005   0.0000000000000000     
  -8.4910814279477514E-008   1.0460720990644356E-005   0.0000000000000000     
  -8.7156839177088638E-008   1.1361836695231040E-005   0.0000000000000000     
  -8.9207531789464915E-008   1.2284437349499380E-005   0.0000000000000000     
  -9.1062908024996587E-008   1.3226569724243051E-005   0.0000000000000000     
  -9.2722983792073658E-008   1.4186280590255714E-005   0.0000000000000000     
  -3.3968804853058976E-007   1.0461248359362337E-005   0.0000000000000000     
  -3.4867215457572913E-007   1.1362320132672008E-005   0.0000000000000000     
  -3.5687491977482682E-007   1.2284876760896216E-005   0.0000000000000000     
  -3.6429639987969259E-007   1.3226964912561126E-005   0.0000000000000000     
  -3.7093665064213704E-007   1.4186631256192920E-005   0.0000000000000000     
  -1.7092642391734711E-007   2.0350753485193563E-006   0.0000000000000000     
  -1.8929390000639386E-007   2.5260143450143935E-006   0.0000000000000000     
  -2.0687550633681189E-007   3.0618622981243132E-006   0.0000000000000000     
  -2.2367295418688304E-007   3.6406707665258738E-006   0.0000000000000000     
  -2.3968795483488955E-007   4.2604913088958385E-006   0.0000000000000000     
  -2.9929614272473359E-007   2.0374010122290089E-006   0.0000000000000000     
  -3.3143792225682414E-007   2.5282401436142990E-006   0.0000000000000000     
  -3.6220514368038834E-007   3.0639898609107695E-006   0.0000000000000000     
  -3.9160054815206879E-007   3.6427011445406986E-006   0.0000000000000000     
  -4.1962687682850807E-007   4.2624249749263637E-006   0.0000000000000000     
  -4.2795129887959296E-007   2.0409947917793896E-006   0.0000000000000000     
  -4.7386577811522933E-007   2.5316797976278472E-006   0.0000000000000000     
  -5.1781786290977335E-007   3.0672778181986818E-006   0.0000000000000000     
  -5.5981102896405871E-007   3.6458389664102875E-006   0.0000000000000000     
  -5.9984875197891914E-007   4.2654133551810610E-006   0.0000000000000000     
  -5.5701337337800353E-007   2.0458558178889940E-006   0.0000000000000000     
  -6.1669878212347738E-007   2.5363329491762114E-006   0.0000000000000000     
  -6.7383492310256993E-007   3.0717260520273065E-006   0.0000000000000000     
  -7.2842566470032294E-007   3.6500841870299019E-006   0.0000000000000000     
  -7.8047487530177825E-007   4.2694564147716199E-006   0.0000000000000000     
  -6.8660384721604465E-007   2.0519832212763187E-006   0.0000000000000000     
  -7.6005824882343555E-007   2.5421992403805581E-006   0.0000000000000000     
  -8.3037758333637999E-007   3.0773344444358969E-006   0.0000000000000000     
  -8.9756572343833124E-007   3.6554367612948009E-006   0.0000000000000000     
  -9.6162654181274173E-007   4.2745541188097325E-006   0.0000000000000000     
  -2.3968795483488955E-007   4.2604913088958385E-006   0.0000000000000000     
  -2.5492190993270668E-007   4.9193746300460959E-006   0.0000000000000000     
  -2.6937498262658034E-007   5.6153680193290365E-006   0.0000000000000000     
  -2.8304702643635018E-007   6.3465179122321852E-006   0.0000000000000000     
  -2.9593789488185519E-007   7.1108707442430634E-006   0.0000000000000000     
  -4.1962687682850807E-007   4.2624249749263637E-006   0.0000000000000000     
  -4.4628637164561902E-007   4.9212115849520685E-006   0.0000000000000000     
  -4.7157927765639359E-007   5.6171082173502096E-006   0.0000000000000000     
  -4.9550534069309408E-007   6.3481613673152045E-006   0.0000000000000000     
  -5.1806430658798335E-007   7.1124175300414806E-006   0.0000000000000000     
  -5.9984875197891914E-007   4.2654133551810610E-006   0.0000000000000000     
  -6.3793386765484466E-007   4.9240505106009151E-006   0.0000000000000000     
  -6.7406665169095440E-007   5.6197976114458416E-006   0.0000000000000000     
  -7.0824673978602284E-007   6.3507012496633503E-006   0.0000000000000000     
  -7.4047376763882554E-007   7.1148080172009457E-006   0.0000000000000000     
  -7.8047487530177825E-007   4.2694564147716199E-006   0.0000000000000000     
  -8.2998570104613598E-007   4.9278914018825316E-006   0.0000000000000000     
  -8.7695839908922772E-007   5.6234362391625034E-006   0.0000000000000000     
  -9.2139250434104521E-007   6.3541376234538450E-006   0.0000000000000000     
  -9.6328755171157862E-007   7.1180422515988806E-006   0.0000000000000000     
  -9.6162654181274173E-007   4.2745541188097325E-006   0.0000000000000000     
  -1.0225631749052427E-006   4.9327342536868089E-006   0.0000000000000000     
  -1.0803758142101777E-006   5.6280241380467480E-006   0.0000000000000000     
  -1.1350639149840688E-006   6.3584705528639237E-006   0.0000000000000000     
  -1.1866269324834376E-006   7.1221202791127040E-006   0.0000000000000000     
  -2.9593789488185519E-007   7.1108707442430634E-006   0.0000000000000000     
  -3.0804746278156875E-007   7.9064730787593129E-006   0.0000000000000000     
  -3.1937569014849999E-007   8.7313719908190938E-006   0.0000000000000000     
  -3.2992255829429264E-007   9.5836146833706735E-006   0.0000000000000000     
  -3.3968804853058976E-007   1.0461248359362337E-005   0.0000000000000000     
  -5.1806430658798335E-007   7.1124175300414806E-006   0.0000000000000000     
  -5.3925596545701207E-007   7.9079232998206733E-006   0.0000000000000000     
  -5.5908028455089173E-007   8.7327256673332951E-006   0.0000000000000000     
  -5.7753727540402168E-007   9.5848717223570761E-006   0.0000000000000000     
  -5.9462694955080204E-007   1.0462408554669746E-005   0.0000000000000000     
  -7.4047376763882554E-007   7.1148080172009457E-006   0.0000000000000000     
  -7.7074744610929482E-007   7.9101645585097331E-006   0.0000000000000000     
  -7.9906778670199416E-007   8.7348177280551738E-006   0.0000000000000000     
  -8.2543487608264432E-007   9.5868144328063306E-006   0.0000000000000000     
  -8.4984880091696599E-007   1.0464201579732253E-005   0.0000000000000000     
  -9.6328755171157862E-007   7.1180422515988806E-006   0.0000000000000000     
  -1.0026431859998182E-006   7.9131968249859551E-006   0.0000000000000000     
  -1.0394594915607530E-006   8.7376480631875724E-006   0.0000000000000000     
  -1.0737366626383729E-006   9.5894426903222669E-006   0.0000000000000000     
  -1.1054748934766654E-006   1.0466627430508573E-005   0.0000000000000000     
  -1.1866269324834376E-006   7.1221202791127040E-006   0.0000000000000000     
  -1.2350644663899832E-006   7.9170200694088057E-006   0.0000000000000000     
  -1.2803766940861149E-006   8.7412165629333287E-006   0.0000000000000000     
  -1.3225639373794197E-006   9.5927563705087168E-006   0.0000000000000000     
  -1.3616265180774852E-006   1.0469686102957413E-005   0.0000000000000000     
  -3.3968804853058976E-007   1.0461248359362337E-005   0.0000000000000000     
  -3.4867215457572913E-007   1.1362320132672008E-005   0.0000000000000000     
  -3.5687491977482682E-007   1.2284876760896216E-005   0.0000000000000000     
  -3.6429639987969259E-007   1.3226964912561126E-005   0.0000000000000000     
  -3.7093665064213704E-007   1.4186631256192920E-005   0.0000000000000000     
  -5.9462694955080204E-007   1.0462408554669746E-005   0.0000000000000000     
  -6.1034930660258721E-007   1.1363383269102929E-005   0.0000000000000000     
  -6.2470429847855038E-007   1.2285843030703794E-005   0.0000000000000000     
  -6.3769186517481868E-007   1.3227835019573406E-005   0.0000000000000000     
  -6.4931194668751991E-007   1.4187406415812821E-005   0.0000000000000000     
  -8.4984880091696599E-007   1.0464201579732253E-005   0.0000000000000000     
  -8.7230958088918122E-007   1.1365026264529682E-005   0.0000000000000000     
  -8.9281696775751796E-007   1.2287336337806050E-005   0.0000000000000000     
  -9.1137064629870405E-007   1.3229179838896467E-005   0.0000000000000000     
  -9.2797030128946853E-007   1.4188604807136046E-005   0.0000000000000000     
  -1.1054748934766654E-006   1.0466627430508573E-005   0.0000000000000000     
  -1.1346742361490520E-006   1.1367249359324760E-005   0.0000000000000000     
  -1.1613341740466758E-006   1.2289356958188011E-005   0.0000000000000000     
  -1.1854540483901121E-006   1.3230999059975257E-005   0.0000000000000000     
  -1.2070332003999376E-006   1.4190224497563403E-005   0.0000000000000000     
  -1.3616265180774852E-006   1.0469686102957413E-005   0.0000000000000000     
  -1.3975645310957384E-006   1.1370052793860634E-005   0.0000000000000000     
  -1.4303771637809690E-006   1.2291905167834700E-005   0.0000000000000000     
  -1.4600633765878067E-006   1.3233292372254696E-005   0.0000000000000000     
  -1.4866221299708823E-006   1.4192263554495704E-005   0.0000000000000000     
  -6.8660384721604465E-007   2.0519832212763187E-006   0.0000000000000000     
  -7.6005824882343555E-007   2.5421992403805581E-006   0.0000000000000000     
  -8.3037758333637999E-007   3.0773344444358969E-006   0.0000000000000000     
  -8.9756572343833124E-007   3.6554367612948009E-006   0.0000000000000000     
  -9.6162654181274173E-007   4.2745541188097325E-006   0.0000000000000000     
  -8.1684398838663461E-007   2.0593761551458219E-006   0.0000000000000000     
  -9.0406541416576060E-007   2.5492783302033060E-006   0.0000000000000000     
  -9.8756708972673079E-007   3.0841028934704498E-006   0.0000000000000000     
  -1.0673524801263948E-006   3.6618966596425980E-006   0.0000000000000000     
  -1.1434250504216017E-006   4.2807064434150920E-006   0.0000000000000000     
  -9.4785421287005614E-007   2.0680338626458179E-006   0.0000000000000000     
  -1.0488411997362691E-006   2.5575699449718578E-006   0.0000000000000000     
  -1.1455246365408503E-006   3.0920313612039155E-006   0.0000000000000000     
  -1.2379072371961954E-006   3.6694639146803182E-006   0.0000000000000000     
  -1.3259917156147007E-006   4.2879134087393967E-006   0.0000000000000000     
  -1.0797547236434321E-006   2.0779556094105840E-006   0.0000000000000000     
  -1.1945064485295665E-006   2.5670738278548701E-006   0.0000000000000000     
  -1.3043714050838894E-006   3.1011198257159869E-006   0.0000000000000000     
  -1.4093513039502539E-006   3.6781385745573430E-006   0.0000000000000000     
  -1.5094478557725154E-006   4.2961750459423424E-006   0.0000000000000000     
  -1.2126657236838844E-006   2.0891406610743966E-006   0.0000000000000000     
  -1.3411820035402594E-006   2.5777897220209919E-006   0.0000000000000000     
  -1.4642285766610010E-006   3.1113682650863554E-006   0.0000000000000000     
  -1.5818059896910945E-006   3.6879206874230481E-006   0.0000000000000000     
  -1.6939147892755250E-006   4.3054913861836295E-006   0.0000000000000000     
  -9.6162654181274173E-007   4.2745541188097325E-006   0.0000000000000000     
  -1.0225631749052427E-006   4.9327342536868089E-006   0.0000000000000000     
  -1.0803758142101777E-006   5.6280241380467480E-006   0.0000000000000000     
  -1.1350639149840688E-006   6.3584705528639237E-006   0.0000000000000000     
  -1.1866269324834376E-006   7.1221202791127040E-006   0.0000000000000000     
  -1.1434250504216017E-006   4.2807064434150920E-006   0.0000000000000000     
  -1.2157875898326404E-006   4.9385790608009767E-006   0.0000000000000000     
  -1.2844401842335562E-006   5.6335613330841019E-006   0.0000000000000000     
  -1.3493822436618341E-006   6.3637000828660080E-006   0.0000000000000000     
  -1.4106131781549588E-006   7.1270421327482474E-006   0.0000000000000000     
  -1.3259917156147007E-006   4.2879134087393967E-006   0.0000000000000000     
  -1.4097802364876980E-006   4.9454258176016027E-006   0.0000000000000000     
  -1.4892727676222635E-006   5.6400477990158883E-006   0.0000000000000000     
  -1.5644687276044065E-006   6.3698261816133285E-006   0.0000000000000000     
  -1.6353675350201385E-006   7.1328077940249983E-006   0.0000000000000000     
  -1.5094478557725154E-006   4.2961750459423424E-006   0.0000000000000000     
  -1.6046624030445075E-006   4.9532745183625798E-006   0.0000000000000000     
  -1.6949948156599856E-006   5.6474834980223945E-006   0.0000000000000000     
  -1.7804445953626839E-006   6.3768487980543175E-006   0.0000000000000000     
  -1.8610112438963356E-006   7.1394172315908632E-006   0.0000000000000000     
  -1.6939147892755250E-006   4.3054913861836295E-006   0.0000000000000000     
  -1.8005553776771620E-006   4.9621251573578113E-006   0.0000000000000000     
  -1.9017275796304110E-006   5.6558683922839094E-006   0.0000000000000000     
  -1.9974310754875631E-006   6.3847678811373973E-006   0.0000000000000000     
  -2.0876655456009061E-006   7.1468704140937460E-006   0.0000000000000000     
  -1.1866269324834376E-006   7.1221202791127040E-006   0.0000000000000000     
  -1.2350644663899832E-006   7.9170200694088057E-006   0.0000000000000000     