 <VTKFile type="UnstructuredGrid"  version="0.1"   >
 <UnstructuredGrid>
 <Piece  NumberOfPoints="           400 "  NumberOfCells="          256 ">
 <Points>
 <DataArray  type="Float64" NumberOfComponents="3"  format="ascii" >
   5.0000000000000000        0.0000000000000000        0.0000000000000000     
   5.3125000000000000        0.0000000000000000        0.0000000000000000     
   5.6250000000000000        0.0000000000000000        0.0000000000000000     
   5.9375000000000000        0.0000000000000000        0.0000000000000000     
   6.2500000000000009        0.0000000000000000        0.0000000000000000     
   5.0000000000000000       0.31250000000000000        0.0000000000000000     
   5.3125000000000000       0.31249999999999994        0.0000000000000000     
   5.6250000000000000       0.31249999999999994        0.0000000000000000     
   5.9375000000000000       0.31250000000000000        0.0000000000000000     
   6.2500000000000000       0.31249999999999994        0.0000000000000000     
   5.0000000000000000       0.62499999999999989        0.0000000000000000     
   5.3124999999999991       0.62500000000000000        0.0000000000000000     
   5.6249999999999991       0.62499999999999989        0.0000000000000000     
   5.9374999999999991       0.62499999999999989        0.0000000000000000     
   6.2499999999999991       0.62500000000000000        0.0000000000000000     
   5.0000000000000000       0.93750000000000000        0.0000000000000000     
   5.3125000000000000       0.93750000000000000        0.0000000000000000     
   5.6249999999999991       0.93750000000000000        0.0000000000000000     
   5.9375000000000000       0.93750000000000000        0.0000000000000000     
   6.2499999999999991       0.93750000000000000        0.0000000000000000     
   5.0000000000000009        1.2500000000000002        0.0000000000000000     
   5.3124999999999991        1.2500000000000000        0.0000000000000000     
   5.6250000000000000        1.2499999999999998        0.0000000000000000     
   5.9375000000000000        1.2500000000000002        0.0000000000000000     
   6.2500000000000000        1.2500000000000002        0.0000000000000000     
   6.2500000000000009        0.0000000000000000        0.0000000000000000     
   6.5625000000000000        0.0000000000000000        0.0000000000000000     
   6.8749999999999991        0.0000000000000000        0.0000000000000000     
   7.1875000000000000        0.0000000000000000        0.0000000000000000     
   7.5000000000000009        0.0000000000000000        0.0000000000000000     
   6.2500000000000000       0.31249999999999994        0.0000000000000000     
   6.5624999999999991       0.31249999999999994        0.0000000000000000     
   6.8750000000000000       0.31249999999999994        0.0000000000000000     
   7.1874999999999991       0.31250000000000000        0.0000000000000000     
   7.5000000000000000       0.31250000000000000        0.0000000000000000     
   6.2499999999999991       0.62500000000000000        0.0000000000000000     
   6.5624999999999991       0.62499999999999989        0.0000000000000000     
   6.8750000000000000       0.62499999999999989        0.0000000000000000     
   7.1874999999999991       0.62500000000000011        0.0000000000000000     
   7.4999999999999991       0.62499999999999978        0.0000000000000000     
   6.2499999999999991       0.93750000000000000        0.0000000000000000     
   6.5625000000000000       0.93750000000000000        0.0000000000000000     
   6.8750000000000000       0.93750000000000000        0.0000000000000000     
   7.1875000000000000       0.93750000000000000        0.0000000000000000     
   7.5000000000000018       0.93750000000000011        0.0000000000000000     
   6.2500000000000000        1.2500000000000002        0.0000000000000000     
   6.5625000000000009        1.2500000000000002        0.0000000000000000     
   6.8750000000000000        1.2499999999999998        0.0000000000000000     
   7.1874999999999991        1.2500000000000002        0.0000000000000000     
   7.5000000000000009        1.2500000000000002        0.0000000000000000     
   7.5000000000000009        0.0000000000000000        0.0000000000000000     
   7.8125000000000000        0.0000000000000000        0.0000000000000000     
   8.1250000000000000        0.0000000000000000        0.0000000000000000     
   8.4375000000000000        0.0000000000000000        0.0000000000000000     
   8.7500000000000000        0.0000000000000000        0.0000000000000000     
   7.5000000000000000       0.31250000000000000        0.0000000000000000     
   7.8124999999999991       0.31249999999999994        0.0000000000000000     
   8.1249999999999982       0.31249999999999994        0.0000000000000000     
   8.4375000000000000       0.31250000000000000        0.0000000000000000     
   8.7499999999999982       0.31249999999999994        0.0000000000000000     
   7.4999999999999991       0.62499999999999978        0.0000000000000000     
   7.8124999999999991       0.62499999999999989        0.0000000000000000     
   8.1250000000000000       0.62500000000000022        0.0000000000000000     
   8.4374999999999982       0.62499999999999978        0.0000000000000000     
   8.7500000000000000       0.62500000000000000        0.0000000000000000     
   7.5000000000000018       0.93750000000000011        0.0000000000000000     
   7.8125000000000000       0.93750000000000000        0.0000000000000000     
   8.1250000000000000       0.93750000000000000        0.0000000000000000     
   8.4375000000000000       0.93750000000000000        0.0000000000000000     
   8.7499999999999982       0.93750000000000000        0.0000000000000000     
   7.5000000000000009        1.2500000000000002        0.0000000000000000     
   7.8125000000000000        1.2500000000000002        0.0000000000000000     
   8.1250000000000018        1.2500000000000000        0.0000000000000000     
   8.4374999999999982        1.2500000000000000        0.0000000000000000     
   8.7500000000000000        1.2500000000000002        0.0000000000000000     
   8.7500000000000000        0.0000000000000000        0.0000000000000000     
   9.0625000000000000        0.0000000000000000        0.0000000000000000     
   9.3750000000000000        0.0000000000000000        0.0000000000000000     
   9.6874999999999982        0.0000000000000000        0.0000000000000000     
   10.000000000000000        0.0000000000000000        0.0000000000000000     
   8.7499999999999982       0.31249999999999994        0.0000000000000000     
   9.0625000000000000       0.31250000000000000        0.0000000000000000     
   9.3749999999999982       0.31250000000000000        0.0000000000000000     
   9.6875000000000000       0.31250000000000000        0.0000000000000000     
   10.000000000000000       0.31250000000000000        0.0000000000000000     
   8.7500000000000000       0.62500000000000000        0.0000000000000000     
   9.0624999999999982       0.62499999999999989        0.0000000000000000     
   9.3750000000000000       0.62500000000000000        0.0000000000000000     
   9.6875000000000000       0.62500000000000000        0.0000000000000000     
   10.000000000000000       0.62499999999999989        0.0000000000000000     
   8.7499999999999982       0.93750000000000000        0.0000000000000000     
   9.0625000000000000       0.93750000000000000        0.0000000000000000     
   9.3749999999999982       0.93750000000000000        0.0000000000000000     
   9.6875000000000000       0.93750000000000000        0.0000000000000000     
   10.000000000000000       0.93750000000000000        0.0000000000000000     
   8.7500000000000000        1.2500000000000002        0.0000000000000000     
   9.0624999999999982        1.2500000000000000        0.0000000000000000     
   9.3750000000000000        1.2500000000000000        0.0000000000000000     
   9.6874999999999982        1.2499999999999998        0.0000000000000000     
   10.000000000000002        1.2500000000000002        0.0000000000000000     
   5.0000000000000009        1.2500000000000002        0.0000000000000000     
   5.3124999999999991        1.2500000000000000        0.0000000000000000     
   5.6250000000000000        1.2499999999999998        0.0000000000000000     
   5.9375000000000000        1.2500000000000002        0.0000000000000000     
   6.2500000000000000        1.2500000000000002        0.0000000000000000     
   4.9999999999999991        1.5624999999999998        0.0000000000000000     
   5.3125000000000000        1.5625000000000000        0.0000000000000000     
   5.6250000000000000        1.5625000000000002        0.0000000000000000     
   5.9375000000000000        1.5625000000000000        0.0000000000000000     
   6.2500000000000000        1.5625000000000000        0.0000000000000000     
   5.0000000000000000        1.8749999999999998        0.0000000000000000     
   5.3124999999999991        1.8749999999999998        0.0000000000000000     
   5.6249999999999991        1.8749999999999998        0.0000000000000000     
   5.9375000000000000        1.8749999999999998        0.0000000000000000     
   6.2500000000000000        1.8750000000000000        0.0000000000000000     
   5.0000000000000000        2.1874999999999996        0.0000000000000000     
   5.3124999999999991        2.1874999999999996        0.0000000000000000     
   5.6250000000000000        2.1875000000000009        0.0000000000000000     
   5.9375000000000000        2.1875000000000000        0.0000000000000000     
   6.2500000000000000        2.1875000000000000        0.0000000000000000     
   5.0000000000000018        2.5000000000000004        0.0000000000000000     
   5.3125000000000009        2.5000000000000004        0.0000000000000000     
   5.6249999999999991        2.4999999999999996        0.0000000000000000     
[...]
 <PointData>
 <DataArray  type="Float64" Name="disp" NumberOfComponents="3" format="ascii">
   3.7568154439011029E-006   1.4223745444633007E-005   0.0000000000000000     
   3.7871120957396432E-006   1.4707241044782597E-005   0.0000000000000000     
   3.8153967242347775E-006   1.5194373056312894E-005   0.0000000000000000     
   3.8417240640039294E-006   1.5684907191441042E-005   0.0000000000000000     
   3.8661488496645234E-006   1.6178609162384198E-005   0.0000000000000000     
   3.2773878851139261E-006   1.4214940037168857E-005   0.0000000000000000     
   3.3038638101557101E-006   1.4699022405724167E-005   0.0000000000000000     
   3.3286679633447322E-006   1.5186685615597504E-005   0.0000000000000000     
   3.3517771794107391E-006   1.5677732580601781E-005   0.0000000000000000     
   3.3731682930834791E-006   1.6171966214549902E-005   0.0000000000000000     
   2.8018889994723571E-006   1.4207326229072554E-005   0.0000000000000000     
   2.8245733531843409E-006   1.4691877836019906E-005   0.0000000000000000     
   2.8458459727216295E-006   1.5180016212559883E-005   0.0000000000000000     
   2.8656654771604962E-006   1.5671544365405834E-005   0.0000000000000000     
   2.8839904855772148E-006   1.6166265301271099E-005   0.0000000000000000     
   2.3297583861215240E-006   1.4200894101819603E-005   0.0000000000000000     
   2.3486677661492097E-006   1.4685821654452903E-005   0.0000000000000000     
   2.3663806357528781E-006   1.5174373256382910E-005   0.0000000000000000     
   2.3828718152056850E-006   1.5666332569492214E-005   0.0000000000000000     
   2.3981161247807895E-006   1.6161483255663418E-005   0.0000000000000000     
   1.8604356442065555E-006   1.4195633736885508E-005   0.0000000000000000     
   1.8755740903739889E-006   1.4680868179806241E-005   0.0000000000000000     
   1.8897218358258838E-006   1.5169765156249472E-005   0.0000000000000000     
   1.9028790514987927E-006   1.5662087216499969E-005   0.0000000000000000     
   1.9150459083292684E-006   1.6157596910842519E-005   0.0000000000000000     
   3.8661488496645234E-006   1.6178609162384198E-005   0.0000000000000000     
   3.8887097592807559E-006   1.6675243189701973E-005   0.0000000000000000     
   3.9093812447039203E-006   1.7174567527323891E-005   0.0000000000000000     
   3.9281217012320790E-006   1.7676338937521917E-005   0.0000000000000000     
   3.9448895241632985E-006   1.8180314182568029E-005   0.0000000000000000     
   3.3731682930834791E-006   1.6171966214549902E-005   0.0000000000000000     
   3.3928288687815091E-006   1.6669175086629344E-005   0.0000000000000000     
   3.4107893896786195E-006   1.7169090387525888E-005   0.0000000000000000     
   3.4270910686374117E-006   1.7671428963299896E-005   0.0000000000000000     
   3.4417751185204856E-006   1.8175907660011710E-005   0.0000000000000000     
   2.8839904855772148E-006   1.6166265301271099E-005   0.0000000000000000     
   2.9007948365788942E-006   1.6663966470722608E-005   0.0000000000000000     
   2.9161132468959943E-006   1.7164373099741630E-005   0.0000000000000000     
   2.9299956527898068E-006   1.7667194858163010E-005   0.0000000000000000     
   2.9424919905216246E-006   1.8172141415821590E-005   0.0000000000000000     
   2.3981161247807895E-006   1.6161483255663418E-005   0.0000000000000000     
   2.4120956163643355E-006   1.6659598742275589E-005   0.0000000000000000     
   2.4248212682944106E-006   1.7160411518693649E-005   0.0000000000000000     
   2.4363112905220920E-006   1.7663643839779007E-005   0.0000000000000000     
   2.4465838929984566E-006   1.8169017960393072E-005   0.0000000000000000     
   1.9150459083292684E-006   1.6157596910842519E-005   0.0000000000000000     
   1.9262191618292531E-006   1.6656053301582106E-005   0.0000000000000000     
   1.9363819058122357E-006   1.7157201499104489E-005   0.0000000000000000     
   1.9455138186670967E-006   1.7660783125815644E-005   0.0000000000000000     
   1.9535945787827133E-006   1.8166539804121529E-005   0.0000000000000000     
   3.9448895241632985E-006   1.8180314182568029E-005   0.0000000000000000     
   3.9597017574869159E-006   1.8686265167181883E-005   0.0000000000000000     
   3.9728100399573734E-006   1.9194024365873881E-005   0.0000000000000000     
   3.9845246590203859E-006   1.9703439395602115E-005   0.0000000000000000     
   3.9951559021216676E-006   2.0214357873324660E-005   0.0000000000000000     
   3.4417751185204856E-006   1.8175907660011710E-005   0.0000000000000000     
   3.4548735663447756E-006   1.8682278666627715E-005   0.0000000000000000     
   3.4663816957445569E-006   1.9190435543738422E-005   0.0000000000000000     
   3.4762856045084399E-006   1.9700307194840364E-005   0.0000000000000000     
   3.4845713904250321E-006   2.0211822523430073E-005   0.0000000000000000     
   2.9424919905216246E-006   1.8172141415821590E-005   0.0000000000000000     
   2.9536230607830758E-006   1.8678962953866422E-005   0.0000000000000000     
   2.9632931219871102E-006   1.9187571698703373E-005   0.0000000000000000     
   2.9713772969770075E-006   1.9697920388052462E-005   0.0000000000000000     
   2.9777507085960550E-006   2.0209961759633755E-005   0.0000000000000000     
   2.4465838929984566E-006   1.8169017960393072E-005   0.0000000000000000     
   2.4556365573320994E-006   1.8676290966621374E-005   0.0000000000000000     
   2.4633838517617117E-006   1.9185359269445970E-005   0.0000000000000000     
   2.4697196161835044E-006   1.9696154111073074E-005   0.0000000000000000     
   2.4745376904936854E-006   2.0208606733708861E-005   0.0000000000000000     
   1.9535945787827133E-006   1.8166539804121529E-005   0.0000000000000000     
   1.9606003725221293E-006   1.8674235642615881E-005   0.0000000000000000     
   1.9664934181450495E-006   1.9183724694643476E-005   0.0000000000000000     
   1.9712324418853435E-006   1.9694883499736852E-005   0.0000000000000000     
   1.9747761699768801E-006   2.0207588597428557E-005   0.0000000000000000     
   3.9951559021216676E-006   2.0214357873324660E-005   0.0000000000000000     
   4.0048757628781889E-006   2.0726983362243821E-005   0.0000000000000000     
   4.0133030595919366E-006   2.1242943210538852E-005   0.0000000000000000     
   4.0199183167361523E-006   2.1764220712633202E-005   0.0000000000000000     
   4.0242020587840747E-006   2.2292799162950343E-005   0.0000000000000000     
   3.4845713904250321E-006   2.0211822523430073E-005   0.0000000000000000     
   3.4912425011099631E-006   2.0725150501025314E-005   0.0000000000000000     
   3.4963717834869342E-006   2.1241420371228738E-005   0.0000000000000000     
   3.5000494343066669E-006   2.1762001445664236E-005   0.0000000000000000     
   3.5023656503198805E-006   2.2288263035955688E-005   0.0000000000000000     
   2.9777507085960550E-006   2.0209961759633755E-005   0.0000000000000000     
   2.9823760823167521E-006   2.0723761134607016E-005   0.0000000000000000     
   2.9855665541284825E-006   2.1239834167890928E-005   0.0000000000000000     
   2.9877228626498466E-006   2.1758809097843863E-005   0.0000000000000000     
   2.9892457464994477E-006   2.2281314162824230E-005   0.0000000000000000     
   2.4745376904936854E-006   2.0208606733708861E-005   0.0000000000000000     
   2.4778326747798814E-006   2.0722643925460888E-005   0.0000000000000000     
   2.4800022098953611E-006   2.1238174658042097E-005   0.0000000000000000     
   2.4815446968848070E-006   2.1755103449066815E-005   0.0000000000000000     
   2.4829585367929030E-006   2.2273334816149335E-005   0.0000000000000000     
   1.9747761699768801E-006   2.0207588597428557E-005   0.0000000000000000     
   1.9771684467806785E-006   2.0721627536058850E-005   0.0000000000000000     
   1.9787935891663521E-006   2.1236431899198969E-005   0.0000000000000000     
   1.9801210321306628E-006   2.1751344279227819E-005   0.0000000000000000     
   1.9816202106703750E-006   2.2265707268524371E-005   0.0000000000000000     
   1.8604356442065555E-006   1.4195633736885508E-005   0.0000000000000000     
   1.8755740903739889E-006   1.4680868179806241E-005   0.0000000000000000     
   1.8897218358258838E-006   1.5169765156249472E-005   0.0000000000000000     
   1.9028790514987927E-006   1.5662087216499969E-005   0.0000000000000000     
   1.9150459083292684E-006   1.6157596910842519E-005   0.0000000000000000     
   1.3933601308480880E-006   1.4191537490616375E-005   0.0000000000000000     
   1.4047215669297594E-006   1.4677027866520766E-005   0.0000000000000000     
   1.4153171201594248E-006   1.5166197144721606E-005   0.0000000000000000     
   1.4251610747840744E-006   1.5658798734750156E-005   0.0000000000000000     
   1.4342677150506952E-006   1.6154586046137669E-005   0.0000000000000000     
   9.2797023506879937E-007   1.4188606818840704E-005   0.0000000000000000     
   9.3554823587722802E-007   1.4674295711668348E-005   0.0000000000000000     
   9.4260469129775766E-007   1.5163661747878020E-005   0.0000000000000000     
   9.4915589697286938E-007   1.5656459171292040E-005   0.0000000000000000     
   9.5521814854504405E-007   1.6152442225732732E-005   0.0000000000000000     
   4.6370410386687481E-007   1.4186845452257592E-005   0.0000000000000000     
   4.6749433702451030E-007   1.4672662847978634E-005   0.0000000000000000     
   4.7102041561650887E-007   1.5162148315176587E-005   0.0000000000000000     
   4.7429256076828997E-007   1.5655060977856941E-005   0.0000000000000000     
   4.7732099360527290E-007   1.6151159960025194E-005   0.0000000000000000     
  -1.1575949933852048E-013   1.4186257121566141E-005   0.0000000000000000     
   1.1017972038223160E-013   1.4672120408181270E-005   0.0000000000000000     
   1.5949130438910081E-013   1.5161646196075176E-005   0.0000000000000000     
   1.0887344595879063E-013   1.5654596606176174E-005   0.0000000000000000     
   3.5024338679024457E-014   1.6150733759412560E-005   0.0000000000000000     
   1.9150459083292684E-006   1.6157596910842519E-005   0.0000000000000000     
   1.9262191618292531E-006   1.6656053301582106E-005   0.0000000000000000     
   1.9363819058122357E-006   1.7157201499104489E-005   0.0000000000000000     
   1.9455138186670967E-006   1.7660783125815644E-005   0.0000000000000000     
   1.9535945787827133E-006   1.8166539804121529E-005   0.0000000000000000     
   1.4342677150506952E-006   1.6154586046137669E-005   0.0000000000000000     
   1.4426424879851961E-006   1.6653313101666367E-005   0.0000000000000000     
   1.4502554917291640E-006   1.7154736377122248E-005   0.0000000000000000     
   1.4570679872031033E-006   1.7658612961542281E-005   0.0000000000000000     
   1.4630412353275197E-006   1.8164699943963416E-005   0.0000000000000000     
   9.5521814854504405E-007   1.6152442225732732E-005   0.0000000000000000     
   9.6079885512422411E-007   1.6651367306474140E-005   0.0000000000000000     
   9.6586987969019870E-007   1.7152999414597251E-005   0.0000000000000000     
   9.7039419869021960E-007   1.7657105702634759E-005   0.0000000000000000     
   9.7433478857153730E-007   1.8163453323119364E-005   0.0000000000000000     
   4.7732099360527290E-007   1.6151159960025194E-005   0.0000000000000000     
   4.8011058485852107E-007   1.6650206632681595E-005   0.0000000000000000     
   4.8264480368167215E-007   1.7151971354805380E-005   0.0000000000000000     
   4.8490176883400861E-007   1.7656226732370548E-005   0.0000000000000000     
   4.8685959907481284E-007   1.8162745371351111E-005   0.0000000000000000     
   3.5024338679024457E-014   1.6150733759412560E-005   0.0000000000000000     
  -1.1997285395578203E-015   1.6649821796964859E-005   0.0000000000000000     
  -2.3100855442811533E-015   1.7151632941022492E-005   0.0000000000000000     
   1.3340033250254230E-014   1.7655941434027113E-005   0.0000000000000000     
   2.7397393374026999E-014   1.8162521518420334E-005   0.0000000000000000     
   1.9535945787827133E-006   1.8166539804121529E-005   0.0000000000000000     
   1.9606003725221293E-006   1.8674235642615881E-005   0.0000000000000000     
   1.9664934181450495E-006   1.9183724694643476E-005   0.0000000000000000     
   1.9712324418853435E-006   1.9694883499736852E-005   0.0000000000000000     
   1.9747761699768801E-006   2.0207588597428557E-005   0.0000000000000000     
   1.4630412353275197E-006   1.8164699943963416E-005   0.0000000000000000     
   1.4681432428166803E-006   1.8672761880304823E-005   0.0000000000000000     
   1.4723689995598993E-006   1.9182593194014536E-005   0.0000000000000000     
   1.4757202412402530E-006   1.9693995775422774E-005   0.0000000000000000     
   1.4781987035408174E-006   2.0206771514859794E-005   0.0000000000000000     
   9.7433478857153730E-007   1.8163453323119364E-005   0.0000000000000000     
   9.7766358441219653E-007   1.8671802421069126E-005   0.0000000000000000     
   9.8038835581341608E-007   1.9181885111443426E-005   0.0000000000000000     
   9.8252583100720964E-007   1.9693426501687025E-005   0.0000000000000000     
   9.8409273822558981E-007   2.0206151699244681E-005   0.0000000000000000     
   4.8685959907481284E-007   1.8162745371351111E-005   0.0000000000000000     
   4.8850223343835354E-007   1.8671281967021229E-005   0.0000000000000000     
   4.8983689205884873E-007   1.9181519571855861E-005   0.0000000000000000     
   4.9087661534550242E-007   1.9693123327630110E-005   0.0000000000000000     
   4.9163444370751920E-007   2.0205758376119103E-005   0.0000000000000000     
   2.7397393374026999E-014   1.8162521518420334E-005   0.0000000000000000     
   2.6024828694641669E-014   1.8671125220273601E-005   0.0000000000000000     
   1.3449445934724948E-014   1.9181415700177516E-005   0.0000000000000000     
  -1.5855801891641593E-015   1.9693033902352503E-005   0.0000000000000000     
  -1.0337074474911626E-014   2.0205620771018957E-005   0.0000000000000000     
   1.9747761699768801E-006   2.0207588597428557E-005   0.0000000000000000     
   1.9771684467806785E-006   2.0721627536058850E-005   0.0000000000000000     
   1.9787935891663521E-006   2.1236431899198969E-005   0.0000000000000000     
   1.9801210321306628E-006   2.1751344279227819E-005   0.0000000000000000     
   1.9816202106703750E-006   2.2265707268524371E-005   0.0000000000000000     
   1.4781987035408174E-006   2.0206771514859794E-005   0.0000000000000000     
   1.4798703993676376E-006   2.0720596375965462E-005   0.0000000000000000     
   1.4810584505186380E-006   2.1234642615618206E-005   0.0000000000000000     
   1.4821502560147114E-006   2.1747956564006102E-005   0.0000000000000000     
   1.4835332148767516E-006   2.2259584551317231E-005   0.0000000000000000     
   9.8409273822558981E-007   2.0206151699244681E-005   0.0000000000000000     
   9.8514886465792491E-007   2.0719657843115542E-005   0.0000000000000000     
   9.8592623332300366E-007   2.1233030198516507E-005   0.0000000000000000     
   9.8669992619696921E-007   2.1745226062218870E-005   0.0000000000000000     
   9.8774502525596578E-007   2.2255202730993928E-005   0.0000000000000000     
   4.9163444370751920E-007   2.0205758376119103E-005   0.0000000000000000     
   4.9214500753587573E-007   2.0718975082536555E-005   0.0000000000000000     
   4.9252929714863599E-007   2.1231864705850567E-005   0.0000000000000000     
   4.9292989284563522E-007   2.1743403728467810E-005   0.0000000000000000     
   4.9348937492670964E-007   2.2252568632794978E-005   0.0000000000000000     
  -1.0337074474911626E-014   2.0205620771018957E-005   0.0000000000000000     
  -7.1141759241618281E-015   2.0718711239255924E-005   0.0000000000000000     
   1.5647208557453077E-015   2.1231416195577060E-005   0.0000000000000000     
   6.1289074268733065E-015   2.1742740517354633E-005   0.0000000000000000     
  -2.9923243571331403E-015   2.2251689081960930E-005   0.0000000000000000     
  -1.1575949933852048E-013   1.4186257121566141E-005   0.0000000000000000     
   1.1017972038223160E-013   1.4672120408181270E-005   0.0000000000000000     
   1.5949130438910081E-013   1.5161646196075176E-005   0.0000000000000000     
   1.0887344595879063E-013   1.5654596606176174E-005   0.0000000000000000     
   3.5024338679024457E-014   1.6150733759412560E-005   0.0000000000000000     
  -4.6370428467729144E-007   1.4186844369106121E-005   0.0000000000000000     
  -4.6749418960066988E-007   1.4672662497962410E-005   0.0000000000000000     
  -4.7102019194319945E-007   1.5162148290777425E-005   0.0000000000000000     
  -4.7429240446703605E-007   1.5655061021453303E-005   0.0000000000000000     
  -4.7732093993433526E-007   1.6151159963892177E-005   0.0000000000000000     
  -9.2797029521408787E-007   1.4188604983780029E-005   0.0000000000000000     
  -9.3554824626676019E-007   1.4674295114834355E-005   0.0000000000000000     
  -9.4260467851622551E-007   1.5163661702470049E-005   0.0000000000000000     
  -9.4915587884246436E-007   1.5656459242780957E-005   0.0000000000000000     
  -9.5521813412546073E-007   1.6152442231860924E-005   0.0000000000000000     
  -1.3933600475626286E-006   1.4191535566131032E-005   0.0000000000000000     
  -1.4047217285202941E-006   1.4677027229265916E-005   0.0000000000000000     
  -1.4153173212979661E-006   1.5166197085085546E-005   0.0000000000000000     
  -1.4251612023006330E-006   1.5658798802724035E-005   0.0000000000000000     
  -1.4342677479332829E-006   1.6154586051315507E-005   0.0000000000000000     
  -1.8604354419156536E-006   1.4195632716702286E-005   0.0000000000000000     
  -1.8755743050630143E-006   1.4680867811725915E-005   0.0000000000000000     
  -1.8897221413586150E-006   1.5169765092556392E-005   0.0000000000000000     
  -1.9028792628893333E-006   1.5662087233847414E-005   0.0000000000000000     
  -1.9150459817420476E-006   1.6157596910252649E-005   0.0000000000000000     
   3.5024338679024457E-014   1.6150733759412560E-005   0.0000000000000000     
  -1.1997285395578203E-015   1.6649821796964859E-005   0.0000000000000000     
  -2.3100855442811533E-015   1.7151632941022492E-005   0.0000000000000000     
   1.3340033250254230E-014   1.7655941434027113E-005   0.0000000000000000     
   2.7397393374026999E-014   1.8162521518420334E-005   0.0000000000000000     
  -4.7732093993433526E-007   1.6151159963892177E-005   0.0000000000000000     
  -4.8011058291376085E-007   1.6650206611591844E-005   0.0000000000000000     
  -4.8264480520000751E-007   1.7151971336432598E-005   0.0000000000000000     
  -4.8490175039427796E-007   1.7656226729890401E-005   0.0000000000000000     
  -4.8685956209777418E-007   1.8162745383441212E-005   0.0000000000000000     
  -9.5521813412546073E-007   1.6152442231860924E-005   0.0000000000000000     
  -9.6079884604850049E-007   1.6651367271197379E-005   0.0000000000000000     
  -9.6586987550808830E-007   1.7152999383852090E-005   0.0000000000000000     
  -9.7039419820403264E-007   1.7657105698280431E-005   0.0000000000000000     
  -9.7433478983614373E-007   1.8163453342937760E-005   0.0000000000000000     
  -1.4342677479332829E-006   1.6154586051315507E-005   0.0000000000000000     
  -1.4426424778442926E-006   1.6653313066008028E-005   0.0000000000000000     
  -1.4502554846555859E-006   1.7154736346005477E-005   0.0000000000000000     
  -1.4570680042324747E-006   1.7658612956525691E-005   0.0000000000000000     
  -1.4630412724402700E-006   1.8164699962786481E-005   0.0000000000000000     
  -1.9150459817420476E-006   1.6157596910252649E-005   0.0000000000000000     
  -1.9262191655414834E-006   1.6656053286250383E-005   0.0000000000000000     
  -1.9363819040637606E-006   1.7157201485617299E-005   0.0000000000000000     
  -1.9455138426228452E-006   1.7660783121954691E-005   0.0000000000000000     
  -1.9535946265327071E-006   1.8166539808863857E-005   0.0000000000000000     
   2.7397393374026999E-014   1.8162521518420334E-005   0.0000000000000000     
   2.6024828694641669E-014   1.8671125220273601E-005   0.0000000000000000     