 <VTKFile type="UnstructuredGrid"  version="0.1"   >
 <UnstructuredGrid>
 <Piece  NumberOfPoints="           800 "  NumberOfCells="          512 ">
 <Points>
 <DataArray  type="Float64" NumberOfComponents="3"  format="ascii" >
  -5.0000000000000000        0.0000000000000000        0.0000000000000000     
  -4.6875000000000000        0.0000000000000000        0.0000000000000000     
  -4.3750000000000009        0.0000000000000000        0.0000000000000000     
  -4.0625000000000000        0.0000000000000000        0.0000000000000000     
  -3.7500000000000004        0.0000000000000000        0.0000000000000000     
  -5.0000000000000000       0.12499999999999999        0.0000000000000000     
  -4.6875000000000000       0.12499999999999999        0.0000000000000000     
  -4.3750000000000000       0.12500000000000000        0.0000000000000000     
  -4.0625000000000000       0.12499999999999997        0.0000000000000000     
  -3.7500000000000004       0.12500000000000000        0.0000000000000000     
  -5.0000000000000000       0.25000000000000000        0.0000000000000000     
  -4.6875000000000000       0.25000000000000000        0.0000000000000000     
  -4.3750000000000000       0.24999999999999997        0.0000000000000000     
  -4.0625000000000000       0.24999999999999997        0.0000000000000000     
  -3.7500000000000000       0.25000000000000000        0.0000000000000000     
  -5.0000000000000000       0.37500000000000000        0.0000000000000000     
  -4.6875000000000000       0.37500000000000000        0.0000000000000000     
  -4.3750000000000000       0.37500000000000000        0.0000000000000000     
  -4.0625000000000000       0.37500000000000000        0.0000000000000000     
  -3.7500000000000000       0.37500000000000000        0.0000000000000000     
  -5.0000000000000009       0.50000000000000000        0.0000000000000000     
  -4.6875000000000000       0.50000000000000011        0.0000000000000000     
  -4.3750000000000009       0.49999999999999994        0.0000000000000000     
  -4.0625000000000000       0.50000000000000000        0.0000000000000000     
  -3.7500000000000000       0.49999999999999994        0.0000000000000000     
  -3.7500000000000004        0.0000000000000000        0.0000000000000000     
  -3.4375000000000000        0.0000000000000000        0.0000000000000000     
  -3.1249999999999996        0.0000000000000000        0.0000000000000000     
  -2.8125000000000000        0.0000000000000000        0.0000000000000000     
  -2.5000000000000004        0.0000000000000000        0.0000000000000000     
  -3.7500000000000004       0.12500000000000000        0.0000000000000000     
  -3.4374999999999996       0.12499999999999999        0.0000000000000000     
  -3.1250000000000000       0.12499999999999999        0.0000000000000000     
  -2.8125000000000000       0.12499999999999999        0.0000000000000000     
  -2.5000000000000000       0.12500000000000000        0.0000000000000000     
  -3.7500000000000000       0.25000000000000000        0.0000000000000000     
  -3.4374999999999996       0.24999999999999994        0.0000000000000000     
  -3.1250000000000004       0.24999999999999994        0.0000000000000000     
  -2.8125000000000000       0.25000000000000000        0.0000000000000000     
  -2.5000000000000000       0.24999999999999997        0.0000000000000000     
  -3.7500000000000000       0.37500000000000000        0.0000000000000000     
  -3.4375000000000000       0.37500000000000000        0.0000000000000000     
  -3.1249999999999996       0.37500000000000000        0.0000000000000000     
  -2.8125000000000000       0.37500000000000000        0.0000000000000000     
  -2.5000000000000004       0.37500000000000006        0.0000000000000000     
  -3.7500000000000000       0.49999999999999994        0.0000000000000000     
  -3.4375000000000009       0.50000000000000011        0.0000000000000000     
  -3.1249999999999996       0.50000000000000011        0.0000000000000000     
  -2.8125000000000004       0.50000000000000000        0.0000000000000000     
  -2.5000000000000004       0.50000000000000011        0.0000000000000000     
  -2.5000000000000004        0.0000000000000000        0.0000000000000000     
  -2.1875000000000000        0.0000000000000000        0.0000000000000000     
  -1.8750000000000004        0.0000000000000000        0.0000000000000000     
  -1.5625000000000002        0.0000000000000000        0.0000000000000000     
  -1.2500000000000002        0.0000000000000000        0.0000000000000000     
  -2.5000000000000000       0.12500000000000000        0.0000000000000000     
  -2.1875000000000000       0.12499999999999999        0.0000000000000000     
  -1.8750000000000000       0.12499999999999999        0.0000000000000000     
  -1.5625000000000002       0.12500000000000000        0.0000000000000000     
  -1.2500000000000000       0.12500000000000000        0.0000000000000000     
  -2.5000000000000000       0.24999999999999997        0.0000000000000000     
  -2.1874999999999996       0.24999999999999994        0.0000000000000000     
  -1.8750000000000004       0.24999999999999997        0.0000000000000000     
  -1.5624999999999998       0.24999999999999994        0.0000000000000000     
  -1.2499999999999998       0.24999999999999997        0.0000000000000000     
  -2.5000000000000004       0.37500000000000006        0.0000000000000000     
  -2.1875000000000000       0.37500000000000000        0.0000000000000000     
  -1.8749999999999996       0.37500000000000000        0.0000000000000000     
  -1.5625000000000000       0.37500000000000000        0.0000000000000000     
  -1.2500000000000002       0.37500000000000006        0.0000000000000000     
  -2.5000000000000004       0.50000000000000011        0.0000000000000000     
  -2.1875000000000009       0.50000000000000011        0.0000000000000000     
  -1.8750000000000002       0.50000000000000000        0.0000000000000000     
  -1.5624999999999998       0.50000000000000000        0.0000000000000000     
  -1.2500000000000002       0.50000000000000011        0.0000000000000000     
  -1.2500000000000002        0.0000000000000000        0.0000000000000000     
 -0.93749999999999989        0.0000000000000000        0.0000000000000000     
 -0.62500000000000022        0.0000000000000000        0.0000000000000000     
 -0.31250000000000006        0.0000000000000000        0.0000000000000000     
   0.0000000000000000        0.0000000000000000        0.0000000000000000     
  -1.2500000000000000       0.12500000000000000        0.0000000000000000     
 -0.93749999999999989       0.12499999999999999        0.0000000000000000     
 -0.62499999999999989       0.12499999999999999        0.0000000000000000     
 -0.31250000000000000       0.12500000000000000        0.0000000000000000     
   0.0000000000000000       0.12500000000000000        0.0000000000000000     
  -1.2499999999999998       0.24999999999999997        0.0000000000000000     
 -0.93749999999999989       0.24999999999999994        0.0000000000000000     
 -0.62499999999999989       0.24999999999999997        0.0000000000000000     
 -0.31249999999999994       0.24999999999999994        0.0000000000000000     
   0.0000000000000000       0.24999999999999997        0.0000000000000000     
  -1.2500000000000002       0.37500000000000006        0.0000000000000000     
 -0.93750000000000011       0.37500000000000000        0.0000000000000000     
 -0.62500000000000000       0.37500000000000000        0.0000000000000000     
 -0.31250000000000000       0.37500000000000000        0.0000000000000000     
   0.0000000000000000       0.37500000000000006        0.0000000000000000     
  -1.2500000000000002       0.50000000000000011        0.0000000000000000     
 -0.93750000000000022       0.50000000000000011        0.0000000000000000     
 -0.62500000000000011       0.50000000000000000        0.0000000000000000     
 -0.31250000000000000       0.50000000000000000        0.0000000000000000     
   0.0000000000000000       0.50000000000000011        0.0000000000000000     
   0.0000000000000000        0.0000000000000000        0.0000000000000000     
  0.31249999999999994        0.0000000000000000        0.0000000000000000     
  0.62500000000000022        0.0000000000000000        0.0000000000000000     
  0.93750000000000011        0.0000000000000000        0.0000000000000000     
   1.2500000000000002        0.0000000000000000        0.0000000000000000     
   0.0000000000000000       0.12500000000000000        0.0000000000000000     
  0.31249999999999994       0.12499999999999999        0.0000000000000000     
  0.62499999999999989       0.12499999999999999        0.0000000000000000     
  0.93750000000000000       0.12500000000000000        0.0000000000000000     
   1.2500000000000000       0.12500000000000000        0.0000000000000000     
   0.0000000000000000       0.24999999999999997        0.0000000000000000     
  0.31249999999999989       0.24999999999999994        0.0000000000000000     
  0.62500000000000011       0.24999999999999997        0.0000000000000000     
  0.93749999999999989       0.24999999999999994        0.0000000000000000     
   1.2500000000000000       0.24999999999999997        0.0000000000000000     
   0.0000000000000000       0.37500000000000006        0.0000000000000000     
  0.31250000000000000       0.37500000000000000        0.0000000000000000     
  0.62500000000000000       0.37500000000000000        0.0000000000000000     
  0.93750000000000022       0.37500000000000000        0.0000000000000000     
   1.2500000000000002       0.37500000000000006        0.0000000000000000     
   0.0000000000000000       0.50000000000000011        0.0000000000000000     
  0.31250000000000011       0.50000000000000011        0.0000000000000000     
  0.62500000000000011       0.50000000000000000        0.0000000000000000     
[...]
 <PointData>
 <DataArray  type="Float64" Name="disp" NumberOfComponents="3" format="ascii">
   1.7568193742828701E-006   2.1465139686279114E-006   0.0000000000000000     
   1.8495875933840183E-006   2.3839062992084491E-006   0.0000000000000000     
   1.9404060867877126E-006   2.6327745495693213E-006   0.0000000000000000     
   2.0292735542493752E-006   2.8928746401587609E-006   0.0000000000000000     
   2.1161886955244302E-006   3.1639624914250040E-006   0.0000000000000000     
   1.6645430934388760E-006   2.1355491163986916E-006   0.0000000000000000     
   1.7526724752930712E-006   2.3731668877665863E-006   0.0000000000000000     
   1.8389494633918062E-006   2.6222624606839936E-006   0.0000000000000000     
   1.9233729374178855E-006   2.8825910237979282E-006   0.0000000000000000     
   2.0059417770541165E-006   3.1539077657554103E-006   0.0000000000000000     
   1.5729485448502429E-006   2.1251447113611048E-006   0.0000000000000000     
   1.6564395099526018E-006   2.3629778852193199E-006   0.0000000000000000     
   1.7381752474998342E-006   2.6122896952185196E-006   0.0000000000000000     
   1.8181548746307431E-006   2.8728350090383457E-006   0.0000000000000000     
   1.8963775084841305E-006   3.1443686943584420E-006   0.0000000000000000     
   1.4819996281740391E-006   2.1153011936529081E-006   0.0000000000000000     
   1.5608525984557666E-006   2.3533392625818332E-006   0.0000000000000000     
   1.6380473912569791E-006   2.6028560755104018E-006   0.0000000000000000     
   1.7135833854396721E-006   2.8636064596569264E-006   0.0000000000000000     
   1.7874599598658417E-006   3.1353452422397216E-006   0.0000000000000000     
   1.3916602430673324E-006   2.1060190034118569E-006   0.0000000000000000     
   1.4658756418957266E-006   2.3442509908693116E-006   0.0000000000000000     
   1.5385298468084229E-006   2.5939614238971417E-006   0.0000000000000000     
   1.6096224893963959E-006   2.8549052394305833E-006   0.0000000000000000     
   1.6791532012506202E-006   3.1268373744048717E-006   0.0000000000000000     
   2.1161886955244302E-006   3.1639624914250040E-006   0.0000000000000000     
   2.2011504493425159E-006   3.4457939438862585E-006   0.0000000000000000     
   2.2841587103301324E-006   3.7381245183406390E-006   0.0000000000000000     
   2.3652136120879958E-006   4.0407096556562338E-006   0.0000000000000000     
   2.4443152882168227E-006   4.3533047967011319E-006   0.0000000000000000     
   2.0059417770541165E-006   3.1539077657554103E-006   0.0000000000000000     
   2.0866550635582201E-006   3.4359679344418773E-006   0.0000000000000000     
   2.1655126844875819E-006   3.7285270146964715E-006   0.0000000000000000     
   2.2425147289745023E-006   4.0313405505967565E-006   0.0000000000000000     
   2.3176612861512824E-006   4.3441640862202965E-006   0.0000000000000000     
   1.8963775084841305E-006   3.1443686943584420E-006   0.0000000000000000     
   1.9728424182060220E-006   3.4266457386369167E-006   0.0000000000000000     
   2.0475494809713395E-006   3.7194216084457612E-006   0.0000000000000000     
   2.1204987259622301E-006   4.0224518901354310E-006   0.0000000000000000     
   2.1916901823608372E-006   4.3354921700563815E-006   0.0000000000000000     
   1.7874599598658417E-006   3.1353452422397216E-006   0.0000000000000000     
   1.8596765926849589E-006   3.4178273776059854E-006   0.0000000000000000     
   1.9302331591963857E-006   3.7108083286184559E-006   0.0000000000000000     
   1.9991296339869593E-006   4.0140436852687559E-006   0.0000000000000000     
   2.0663659916435187E-006   4.3272890375485055E-006   0.0000000000000000     
   1.6791532012506202E-006   3.1268373744048717E-006   0.0000000000000000     
   1.7471216663940677E-006   3.4095128724836899E-006   0.0000000000000000     
   1.8135277785776990E-006   3.7026872042445040E-006   0.0000000000000000     
   1.8783714839844749E-006   4.0061159469932305E-006   0.0000000000000000     
   1.9416527287973553E-006   4.3195546780357848E-006   0.0000000000000000     
   2.4443152882168227E-006   4.3533047967011319E-006   0.0000000000000000     
   2.5214638475680946E-006   4.6756654633655292E-006   0.0000000000000000     
   2.5966592999963648E-006   5.0075475016280505E-006   0.0000000000000000     
   2.6699016306069510E-006   5.3487068384894247E-006   0.0000000000000000     
   2.7411908245051733E-006   5.6988994009503855E-006   0.0000000000000000     
   2.3176612861512824E-006   4.3441640862202965E-006   0.0000000000000000     
   2.3909524242997839E-006   4.6667532241367303E-006   0.0000000000000000     
   2.4623881283001258E-006   4.9988638008840141E-006   0.0000000000000000     
   2.5319683621819891E-006   5.3402517114921789E-006   0.0000000000000000     
   2.5996930899750519E-006   5.6906728509912555E-006   0.0000000000000000     
   2.1916901823608372E-006   4.3354921700563815E-006   0.0000000000000000     
   2.2611238698481806E-006   4.6582980839893750E-006   0.0000000000000000     
   2.3287997701007650E-006   4.9906254654363986E-006   0.0000000000000000     
   2.3947178552939668E-006   5.3322301973297344E-006   0.0000000000000000     
   2.4588780976031640E-006   5.6828681626016786E-006   0.0000000000000000     
   2.0663659916435187E-006   4.3272890375485055E-006   0.0000000000000000     
   2.1319422098942072E-006   4.6503000244779530E-006   0.0000000000000000     
   2.1958582790323994E-006   4.9828324811918305E-006   0.0000000000000000     
   2.2581141924927795E-006   5.3246422918535043E-006   0.0000000000000000     
   2.3187099437100301E-006   5.6754853406263274E-006   0.0000000000000000     
   1.9416527287973553E-006   4.3195546780357848E-006   0.0000000000000000     
   2.0033714701187847E-006   4.6427590271569454E-006   0.0000000000000000     
   2.0635277087291488E-006   4.9754848340569442E-006   0.0000000000000000     
   2.1221214563283192E-006   5.3174879909148847E-006   0.0000000000000000     
   2.1791527246161689E-006   5.6685243899098619E-006   0.0000000000000000     
   2.7411908245051733E-006   5.6988994009503855E-006   0.0000000000000000     
   2.8105268713735756E-006   6.0578811064653598E-006   0.0000000000000000     
   2.8779097792036132E-006   6.4254078343035645E-006   0.0000000000000000     
   2.9433395605639624E-006   6.8012354541879069E-006   0.0000000000000000     
   3.0068162280233037E-006   7.1851198358412995E-006   0.0000000000000000     
   2.5996930899750519E-006   5.6906728509912555E-006   0.0000000000000000     
   2.6655622884762993E-006   6.0498831104462960E-006   0.0000000000000000     
   2.7295759855519255E-006   6.4176383650624419E-006   0.0000000000000000     
   2.7917342218354276E-006   6.7936944860798587E-006   0.0000000000000000     
   2.8520370379603015E-006   7.1778073447387064E-006   0.0000000000000000     
   2.4588780976031640E-006   5.6828681626016786E-006   0.0000000000000000     
   2.5212804796542854E-006   6.0422952416264746E-006   0.0000000000000000     
   2.5819250258754715E-006   6.4102673045462086E-006   0.0000000000000000     
   2.6408117711454112E-006   6.7865402189449179E-006   0.0000000000000000     
   2.6979407503427983E-006   7.1708698524066492E-006   0.0000000000000000     
   2.3187099437100301E-006   5.6754853406263274E-006   0.0000000000000000     
   2.3776455291531459E-006   6.0351175078790069E-006   0.0000000000000000     
   2.4349209574283741E-006   6.4032946588016151E-006   0.0000000000000000     
   2.4905362401762780E-006   6.7797726547895821E-006   0.0000000000000000     
   2.5444913890374159E-006   7.1643073572383217E-006   0.0000000000000000     
   2.1791527246161689E-006   5.6685243899098619E-006   0.0000000000000000     
   2.2346215212184898E-006   6.0283499170769903E-006   0.0000000000000000     
   2.2885278374647617E-006   6.3967204338754238E-006   0.0000000000000000     
   2.3408716606103897E-006   6.7733917956203367E-006   0.0000000000000000     
   2.3916529779107750E-006   7.1581198576269023E-006   0.0000000000000000     
   3.0068162280233037E-006   7.1851198358412995E-006   0.0000000000000000     
   3.0683397845995573E-006   7.5768168301666075E-006   0.0000000000000000     
   3.1279101951076142E-006   7.9760822127865235E-006   0.0000000000000000     
   3.1855274148116032E-006   8.3826717405036930E-006   0.0000000000000000     
   3.2411913989756552E-006   8.7963411701207598E-006   0.0000000000000000     
   2.8520370379603015E-006   7.1778073447387064E-006   0.0000000000000000     
   2.9104844544775301E-006   7.5697327979957287E-006   0.0000000000000000     
   2.9670764116080363E-006   7.9692266456740026E-006   0.0000000000000000     
   3.0218128294902265E-006   8.3760446733131825E-006   0.0000000000000000     
   3.0746936282625079E-006   8.7899426664529211E-006   0.0000000000000000     
   2.6979407503427983E-006   7.1708698524066492E-006   0.0000000000000000     
   2.7533119806203566E-006   7.5630120627762635E-006   0.0000000000000000     
   2.8069254082269494E-006   7.9627226689418876E-006   0.0000000000000000     
   2.8587809616854694E-006   8.3697574800524650E-006   0.0000000000000000     
   2.9088785695188143E-006   8.7838723052569480E-006   0.0000000000000000     
   2.5444913890374159E-006   7.1643073572383217E-006   0.0000000000000000     
   2.5967864071333744E-006   7.5566546217051359E-006   0.0000000000000000     
   2.6474212635098448E-006   7.9565702803948266E-006   0.0000000000000000     
   2.6963959186935454E-006   8.3638101596740980E-006   0.0000000000000000     
   2.7437103332111926E-006   8.7781300859096241E-006   0.0000000000000000     
   2.3916529779107750E-006   7.1581198576269023E-006   0.0000000000000000     
   2.4408717781219186E-006   7.5506604719792673E-006   0.0000000000000000     
   2.4885280560022155E-006   7.9507694778374931E-006   0.0000000000000000     
   2.5346218078106637E-006   8.3582027111306286E-006   0.0000000000000000     
   2.5791530298062559E-006   8.7727160077877144E-006   0.0000000000000000     
   3.2411913989756552E-006   8.7963411701207598E-006   0.0000000000000000     
   3.2949021259780842E-006   9.2168463080067401E-006   0.0000000000000000     
   3.3466596666539447E-006   9.6439431587961281E-006   0.0000000000000000     
   3.3964641149524700E-006   1.0077387776689777E-005   0.0000000000000000     
   3.4443155648228967E-006   1.0516936215888552E-005   0.0000000000000000     
   3.0746936282625079E-006   8.7899426664529211E-006   0.0000000000000000     
   3.1257187647137831E-006   9.2106764419742388E-006   0.0000000000000000     
   3.1748883422349404E-006   9.6380019421236333E-006   0.0000000000000000     
   3.2222025008673626E-006   1.0071675140488968E-005   0.0000000000000000     
   3.2676613806524319E-006   1.0511452010658103E-005   0.0000000000000000     
   2.9088785695188143E-006   8.7838723052569480E-006   0.0000000000000000     
   2.9572181926887527E-006   9.2048229706323563E-006   0.0000000000000000     
   3.0037999219125535E-006   9.6323653699680320E-006   0.0000000000000000     
   3.0486238803463570E-006   1.0066255413981363E-005   0.0000000000000000     
   3.0916901911463093E-006   1.0506249013389775E-005   0.0000000000000000     
   2.7437103332111926E-006   8.7781300859096241E-006   0.0000000000000000     
   2.7893644861145634E-006   9.1992858922881024E-006   0.0000000000000000     
   2.8333584305556871E-006   9.6270334392762617E-006   0.0000000000000000     
   2.8756922382116505E-006   1.0061128594160845E-005   0.0000000000000000     
   2.9163659807595412E-006   1.0501327224228579E-005   0.0000000000000000     
   2.5791530298062559E-006   8.7727160077877144E-006   0.0000000000000000     
   2.6221217212027871E-006   9.1940652052484649E-006   0.0000000000000000     
   2.6635278930332489E-006   9.6220061469952904E-006   0.0000000000000000     
   2.7033715592854345E-006   1.0056294678021276E-005   0.0000000000000000     
   2.7416527339471369E-006   1.0496686643319506E-005   0.0000000000000000     
   3.4443155648228967E-006   1.0516936215888552E-005   0.0000000000000000     
   3.4902140426010939E-006   1.0962344397568240E-005   0.0000000000000000     
   3.5341593041694669E-006   1.1413367710804357E-005   0.0000000000000000     
   3.5761510377970524E-006   1.1869761411647353E-005   0.0000000000000000     
   3.6161889317528856E-006   1.2331280756147664E-005   0.0000000000000000     
   3.2676613806524319E-006   1.0511452010658103E-005   0.0000000000000000     
   3.3112650423334201E-006   1.0957088445367065E-005   0.0000000000000000     
   3.3530132294611560E-006   1.1408340013944578E-005   0.0000000000000000     
   3.3929056062883588E-006   1.1864962204867515E-005   0.0000000000000000     
   3.4309418370677458E-006   1.2326710506612761E-005   0.0000000000000000     
   3.0916901911463093E-006   1.0506249013389775E-005   0.0000000000000000     
   3.1329989144834783E-006   1.0952102038763093E-005   0.0000000000000000     
   3.1725498585886455E-006   1.1403570200080824E-005   0.0000000000000000     
   3.2103427687075153E-006   1.1860409167174897E-005   0.0000000000000000     
   3.2463773900857975E-006   1.2322374609877256E-005   0.0000000000000000     
   2.9163659807595412E-006   1.0501327224228579E-005   0.0000000000000000     
   2.9553796980588438E-006   1.0947385184620758E-005   0.0000000000000000     
   2.9927333026986290E-006   1.1399058281896872E-005   0.0000000000000000     
   3.0284266754503636E-006   1.1856102310470981E-005   0.0000000000000000     
   3.0624596970855123E-006   1.2318273064757124E-005   0.0000000000000000     
   2.7416527339471369E-006   1.0496686643319506E-005   0.0000000000000000     
   2.7783714320670902E-006   1.0942937889804499E-005   0.0000000000000000     
   2.8135276729378076E-006   1.1394804272076506E-005   0.0000000000000000     
   2.8471214769127456E-006   1.1852041646657219E-005   0.0000000000000000     
   2.8791528643453595E-006   1.2314405870068337E-005   0.0000000000000000     
   3.6161889317528856E-006   1.2331280756147664E-005   0.0000000000000000     
   3.6542729872247240E-006   1.2797681372314237E-005   0.0000000000000000     
   3.6904044570751986E-006   1.3268720375989980E-005   0.0000000000000000     
   3.7245849070856578E-006   1.3744155254976295E-005   0.0000000000000000     
   3.7568159030374519E-006   1.4223743497074588E-005   0.0000000000000000     
   3.4309418370677458E-006   1.2326710506612761E-005   0.0000000000000000     
   3.4671218732530243E-006   1.2793340496461963E-005   0.0000000000000000     
   3.5014468151018694E-006   1.3264608106915836E-005   0.0000000000000000     
   3.5339180500729467E-006   1.3740269359279863E-005   0.0000000000000000     
   3.5645369656249202E-006   1.4220080274859516E-005   0.0000000000000000     
   3.2463773900857975E-006   1.2322374609877256E-005   0.0000000000000000     
   3.2806536722114324E-006   1.2789222069847678E-005   0.0000000000000000     
   3.3131723815412951E-006   1.3260706576057392E-005   0.0000000000000000     
   3.3439344887744901E-006   1.3736583029305468E-005   0.0000000000000000     
   3.3729409646101300E-006   1.4216606330390998E-005   0.0000000000000000     
   3.0624596970855123E-006   1.2318273064757124E-005   0.0000000000000000     
   3.0948323400547433E-006   1.2785326073360497E-005   0.0000000000000000     
   3.1255449435255264E-006   1.3257015801650895E-005   0.0000000000000000     
   3.1545979383445308E-006   1.3733096449189249E-005   0.0000000000000000     
   3.1819917553584271E-006   1.4213322215536499E-005   0.0000000000000000     
   2.8791528643453595E-006   1.2314405870068337E-005   0.0000000000000000     
   2.9096218327377526E-006   1.2781652487889548E-005   0.0000000000000000     
   2.9385282881866209E-006   1.3253535801932627E-005   0.0000000000000000     
   2.9658721139373082E-006   1.3729809803067346E-005   0.0000000000000000     
   2.9916531932351558E-006   1.4210228482163481E-005   0.0000000000000000     
   1.3916602430673324E-006   2.1060190034118569E-006   0.0000000000000000     
   1.4658756418957266E-006   2.3442509908693116E-006   0.0000000000000000     
   1.5385298468084229E-006   2.5939614238971417E-006   0.0000000000000000     
   1.6096224893963959E-006   2.8549052394305833E-006   0.0000000000000000     
   1.6791532012506202E-006   3.1268373744048717E-006   0.0000000000000000     
   1.3018943794220708E-006   2.0972985102105022E-006   0.0000000000000000     
   1.3714726182595520E-006   2.3357130398280957E-006   0.0000000000000000     
   1.4395866169080141E-006   2.5856055846611289E-006   0.0000000000000000     
   1.5062362275715610E-006   2.8467312297272713E-006   0.0000000000000000     
   1.5714213024542960E-006   3.1188450600441898E-006   0.0000000000000000     
   1.2126663880697255E-006   2.0891398013605729E-006   0.0000000000000000     
   1.2776078131099687E-006   2.3277253741291608E-006   0.0000000000000000     
   1.3411819067442660E-006   2.5777884898643079E-006   0.0000000000000000     
   1.4033887271114990E-006   2.8390843822791142E-006   0.0000000000000000     
   1.4642283323505488E-006   3.1113682850866769E-006   0.0000000000000000     
   1.1239407100766474E-006   2.0815428936085919E-006   0.0000000000000000     
   1.1842455889036135E-006   2.3202879571746399E-006   0.0000000000000000     
   1.2432799721143590E-006   2.5705100935135106E-006   0.0000000000000000     
   1.3010441366814663E-006   2.8319646664092758E-006   0.0000000000000000     
   1.3575383595775183E-006   3.1044070396460110E-006   0.0000000000000000     
   1.0356817865091878E-006   2.0745078037010831E-006   0.0000000000000000     
   1.0913503080971252E-006   2.3134007523666682E-006   0.0000000000000000     
   1.1458450688154735E-006   2.5637703496155687E-006   0.0000000000000000     
   1.1991666049467180E-006   2.8253720514409239E-006   0.0000000000000000     
   1.2513154527733469E-006   3.0979613138358699E-006   0.0000000000000000     
   1.6791532012506202E-006   3.1268373744048717E-006   0.0000000000000000     
   1.7471216663940677E-006   3.4095128724836899E-006   0.0000000000000000     
   1.8135277785776990E-006   3.7026872042445040E-006   0.0000000000000000     
   1.8783714839844749E-006   4.0061159469932305E-006   0.0000000000000000     
   1.9416527287973553E-006   4.3195546780357848E-006   0.0000000000000000     
   1.5714213024542960E-006   3.1188450600441898E-006   0.0000000000000000     
   1.6351417114291933E-006   3.4017022410610554E-006   0.0000000000000000     
   1.6973973950447020E-006   3.6950582599530542E-006   0.0000000000000000     
   1.7581883115181413E-006   3.9986686843268766E-006   0.0000000000000000     
   1.8175144190668308E-006   4.3122890817892084E-006   0.0000000000000000     
   1.4642283323505488E-006   3.1113682850866769E-006   0.0000000000000000     
   1.5237007706734151E-006   3.3943954877547969E-006   0.0000000000000000     
   1.5818060505845834E-006   3.6879215027700675E-006   0.0000000000000000     
   1.6385441706616583E-006   3.9917018983737890E-006   0.0000000000000000     
   1.6939151294822444E-006   4.3054922428072530E-006   0.0000000000000000     
   1.3575383595775183E-006   3.1044070396460110E-006   0.0000000000000000     
   1.4127628797066211E-006   3.3875926136380438E-006   0.0000000000000000     
   1.4667177836989759E-006   3.6812769353207050E-006   0.0000000000000000     
   1.5194031201163100E-006   3.9852155882595866E-006   0.0000000000000000     
   1.5708189375203502E-006   4.2991641560202782E-006   0.0000000000000000     
   1.2513154527733469E-006   3.0979613138358699E-006   0.0000000000000000     
   1.3022920741086964E-006   3.3812936197839230E-006   0.0000000000000000     
   1.3520966328895097E-006   3.6751245602301235E-006   0.0000000000000000     
   1.4007292185833805E-006   3.9792097531098882E-006   0.0000000000000000     
   1.4481899206579015E-006   4.2933048163586318E-006   0.0000000000000000     
   1.9416527287973553E-006   4.3195546780357848E-006   0.0000000000000000     
   2.0033714701187847E-006   4.6427590271569454E-006   0.0000000000000000     