 <VTKFile type="UnstructuredGrid"  version="0.1"   >
 <UnstructuredGrid>
 <Piece  NumberOfPoints="          1600 "  NumberOfCells="         1024 ">
 <Points>
 <DataArray  type="Float64" NumberOfComponents="3"  format="ascii" >
  -10.000000000000000        0.0000000000000000        0.0000000000000000     
  -9.6875000000000000        0.0000000000000000        0.0000000000000000     
  -9.3750000000000000        0.0000000000000000        0.0000000000000000     
  -9.0625000000000000        0.0000000000000000        0.0000000000000000     
  -8.7500000000000000        0.0000000000000000        0.0000000000000000     
  -10.000000000000000       0.15625000000000000        0.0000000000000000     
  -9.6875000000000000       0.15625000000000000        0.0000000000000000     
  -9.3750000000000000       0.15625000000000000        0.0000000000000000     
  -9.0625000000000018       0.15625000000000003        0.0000000000000000     
  -8.7500000000000000       0.15625000000000000        0.0000000000000000     
  -10.000000000000000       0.31250000000000006        0.0000000000000000     
  -9.6875000000000000       0.31250000000000000        0.0000000000000000     
  -9.3750000000000000       0.31250000000000000        0.0000000000000000     
  -9.0625000000000000       0.31250000000000006        0.0000000000000000     
  -8.7500000000000000       0.31250000000000000        0.0000000000000000     
  -10.000000000000000       0.46875000000000000        0.0000000000000000     
  -9.6875000000000000       0.46875000000000000        0.0000000000000000     
  -9.3750000000000000       0.46875000000000000        0.0000000000000000     
  -9.0625000000000000       0.46875000000000000        0.0000000000000000     
  -8.7500000000000000       0.46875000000000000        0.0000000000000000     
  -10.000000000000000       0.62500000000000011        0.0000000000000000     
  -9.6875000000000000       0.62500000000000000        0.0000000000000000     
  -9.3750000000000000       0.62499999999999989        0.0000000000000000     
  -9.0625000000000000       0.62500000000000011        0.0000000000000000     
  -8.7500000000000018       0.62500000000000022        0.0000000000000000     
  -8.7500000000000000        0.0000000000000000        0.0000000000000000     
  -8.4375000000000000        0.0000000000000000        0.0000000000000000     
  -8.1250000000000000        0.0000000000000000        0.0000000000000000     
  -7.8124999999999991        0.0000000000000000        0.0000000000000000     
  -7.5000000000000018        0.0000000000000000        0.0000000000000000     
  -8.7500000000000000       0.15625000000000000        0.0000000000000000     
  -8.4375000000000000       0.15625000000000000        0.0000000000000000     
  -8.1250000000000018       0.15625000000000000        0.0000000000000000     
  -7.8125000000000000       0.15625000000000003        0.0000000000000000     
  -7.5000000000000000       0.15625000000000000        0.0000000000000000     
  -8.7500000000000000       0.31250000000000000        0.0000000000000000     
  -8.4375000000000000       0.31250000000000000        0.0000000000000000     
  -8.1250000000000018       0.31250000000000000        0.0000000000000000     
  -7.8125000000000009       0.31250000000000006        0.0000000000000000     
  -7.5000000000000009       0.31250000000000000        0.0000000000000000     
  -8.7500000000000000       0.46875000000000000        0.0000000000000000     
  -8.4375000000000018       0.46875000000000000        0.0000000000000000     
  -8.1250000000000000       0.46875000000000000        0.0000000000000000     
  -7.8125000000000000       0.46875000000000000        0.0000000000000000     
  -7.5000000000000009       0.46875000000000006        0.0000000000000000     
  -8.7500000000000018       0.62500000000000022        0.0000000000000000     
  -8.4375000000000018       0.62500000000000011        0.0000000000000000     
  -8.1250000000000000       0.62499999999999989        0.0000000000000000     
  -7.8125000000000000       0.62500000000000011        0.0000000000000000     
  -7.5000000000000009       0.62500000000000011        0.0000000000000000     
  -7.5000000000000018        0.0000000000000000        0.0000000000000000     
  -7.1875000000000000        0.0000000000000000        0.0000000000000000     
  -6.8750000000000009        0.0000000000000000        0.0000000000000000     
  -6.5625000000000000        0.0000000000000000        0.0000000000000000     
  -6.2500000000000000        0.0000000000000000        0.0000000000000000     
  -7.5000000000000000       0.15625000000000000        0.0000000000000000     
  -7.1875000000000000       0.15625000000000000        0.0000000000000000     
  -6.8750000000000009       0.15625000000000003        0.0000000000000000     
  -6.5625000000000009       0.15625000000000003        0.0000000000000000     
  -6.2500000000000000       0.15625000000000000        0.0000000000000000     
  -7.5000000000000009       0.31250000000000000        0.0000000000000000     
  -7.1875000000000000       0.31250000000000000        0.0000000000000000     
  -6.8750000000000009       0.31250000000000011        0.0000000000000000     
  -6.5624999999999991       0.31249999999999989        0.0000000000000000     
  -6.2500000000000009       0.31250000000000000        0.0000000000000000     
  -7.5000000000000009       0.46875000000000006        0.0000000000000000     
  -7.1875000000000000       0.46875000000000000        0.0000000000000000     
  -6.8749999999999991       0.46874999999999994        0.0000000000000000     
  -6.5625000000000009       0.46875000000000000        0.0000000000000000     
  -6.2500000000000009       0.46875000000000006        0.0000000000000000     
  -7.5000000000000009       0.62500000000000011        0.0000000000000000     
  -7.1875000000000018       0.62500000000000022        0.0000000000000000     
  -6.8750000000000009       0.62500000000000000        0.0000000000000000     
  -6.5625000000000000       0.62500000000000000        0.0000000000000000     
  -6.2500000000000009       0.62500000000000011        0.0000000000000000     
  -6.2500000000000000        0.0000000000000000        0.0000000000000000     
  -5.9375000000000000        0.0000000000000000        0.0000000000000000     
  -5.6250000000000009        0.0000000000000000        0.0000000000000000     
  -5.3125000000000009        0.0000000000000000        0.0000000000000000     
  -5.0000000000000009        0.0000000000000000        0.0000000000000000     
  -6.2500000000000000       0.15625000000000000        0.0000000000000000     
  -5.9375000000000000       0.15625000000000000        0.0000000000000000     
  -5.6250000000000009       0.15625000000000003        0.0000000000000000     
  -5.3125000000000000       0.15625000000000003        0.0000000000000000     
  -5.0000000000000000       0.15625000000000000        0.0000000000000000     
  -6.2500000000000009       0.31250000000000000        0.0000000000000000     
  -5.9375000000000000       0.31250000000000000        0.0000000000000000     
  -5.6250000000000018       0.31250000000000011        0.0000000000000000     
  -5.3124999999999991       0.31249999999999989        0.0000000000000000     
  -5.0000000000000000       0.31250000000000000        0.0000000000000000     
  -6.2500000000000009       0.46875000000000006        0.0000000000000000     
  -5.9375000000000009       0.46875000000000000        0.0000000000000000     
  -5.6249999999999991       0.46874999999999994        0.0000000000000000     
  -5.3125000000000000       0.46875000000000000        0.0000000000000000     
  -5.0000000000000000       0.46875000000000006        0.0000000000000000     
  -6.2500000000000009       0.62500000000000011        0.0000000000000000     
  -5.9375000000000009       0.62500000000000022        0.0000000000000000     
  -5.6250000000000000       0.62500000000000000        0.0000000000000000     
  -5.3125000000000000       0.62500000000000000        0.0000000000000000     
  -5.0000000000000009       0.62500000000000011        0.0000000000000000     
  -5.0000000000000009        0.0000000000000000        0.0000000000000000     
  -4.6875000000000000        0.0000000000000000        0.0000000000000000     
  -4.3750000000000009        0.0000000000000000        0.0000000000000000     
  -4.0625000000000009        0.0000000000000000        0.0000000000000000     
  -3.7500000000000004        0.0000000000000000        0.0000000000000000     
  -5.0000000000000000       0.15625000000000000        0.0000000000000000     
  -4.6875000000000000       0.15625000000000000        0.0000000000000000     
  -4.3750000000000009       0.15625000000000003        0.0000000000000000     
  -4.0625000000000000       0.15625000000000003        0.0000000000000000     
  -3.7500000000000000       0.15625000000000000        0.0000000000000000     
  -5.0000000000000000       0.31250000000000000        0.0000000000000000     
  -4.6875000000000000       0.31250000000000000        0.0000000000000000     
  -4.3750000000000009       0.31250000000000011        0.0000000000000000     
  -4.0624999999999991       0.31249999999999989        0.0000000000000000     
  -3.7500000000000009       0.31250000000000000        0.0000000000000000     
  -5.0000000000000000       0.46875000000000006        0.0000000000000000     
  -4.6875000000000000       0.46875000000000000        0.0000000000000000     
  -4.3749999999999991       0.46874999999999994        0.0000000000000000     
  -4.0625000000000000       0.46875000000000000        0.0000000000000000     
  -3.7500000000000004       0.46875000000000006        0.0000000000000000     
  -5.0000000000000009       0.62500000000000011        0.0000000000000000     
  -4.6875000000000009       0.62500000000000022        0.0000000000000000     
  -4.3750000000000000       0.62500000000000000        0.0000000000000000     
[...]
 <PointData>
 <DataArray  type="Float64" Name="disp" NumberOfComponents="3" format="ascii">
   0.0000000000000000        0.0000000000000000        0.0000000000000000     
   1.4232799813911825E-007   7.6279242381290725E-008   0.0000000000000000     
   2.6910780168825622E-007   1.4227028701423846E-007   0.0000000000000000     
   3.8586788062807815E-007   2.0609315607195656E-007   0.0000000000000000     
   4.9813670493924836E-007   2.7586787172755853E-007   0.0000000000000000     
   0.0000000000000000        0.0000000000000000        0.0000000000000000     
   1.2030787543647856E-007   6.1574329866561234E-008   0.0000000000000000     
   2.3677206590228114E-007   1.2247361977569447E-007   0.0000000000000000     
   3.4986519288879551E-007   1.8695957480298140E-007   0.0000000000000000     
   4.6005987788740940E-007   2.5929390002400354E-007   0.0000000000000000     
   0.0000000000000000        0.0000000000000000        0.0000000000000000     
   1.0440923783251703E-007   4.9834444694980717E-008   0.0000000000000000     
   2.1092675156057116E-007   1.0587999190665029E-007   0.0000000000000000     
   3.1766261742288153E-007   1.6982549783262757E-007   0.0000000000000000     
   4.2272691165816693E-007   2.4335981867053140E-007   0.0000000000000000     
   0.0000000000000000        0.0000000000000000        0.0000000000000000     
   9.2770408093995564E-008   4.0523884949463737E-008   0.0000000000000000     
   1.8975163080644744E-007   9.2035692782298149E-008   0.0000000000000000     
   2.8845935055422456E-007   1.5461575564632264E-007   0.0000000000000000     
   3.8640924975419576E-007   2.2834440568935695E-007   0.0000000000000000     
   0.0000000000000000        0.0000000000000000        0.0000000000000000     
   8.3529708987676105E-008   3.3106948712924858E-008   0.0000000000000000     
   1.7142647578323092E-007   8.0487011777830142E-008   0.0000000000000000     
   2.6145458860671305E-007   1.4125517872949412E-007   0.0000000000000000     
   3.5137833567817101E-007   2.1452643910269520E-007   0.0000000000000000     
   4.9813670493924836E-007   2.7586787172755853E-007   0.0000000000000000     
   6.1038273214292066E-007   3.5833314708569473E-007   0.0000000000000000     
   7.2283436992220737E-007   4.5470245897716530E-007   0.0000000000000000     
   8.3466001350070990E-007   5.6480797516430682E-007   0.0000000000000000     
   9.4502805810202997E-007   6.8848186340945638E-007   0.0000000000000000     
   4.6005987788740940E-007   2.5929390002400354E-007   0.0000000000000000     
   5.6780395166179830E-007   3.4311123395189169E-007   0.0000000000000000     
   6.7344608206478750E-007   4.3953794884997279E-007   0.0000000000000000     
   7.7731014622149024E-007   5.4907335041912266E-007   0.0000000000000000     
   8.7972002125701946E-007   6.7221674436021756E-007   0.0000000000000000     
   4.2272691165816693E-007   2.4335981867053140E-007   0.0000000000000000     
   5.2465927854715916E-007   3.2801801607065721E-007   0.0000000000000000     
   6.2371763453864230E-007   4.2471997349400721E-007   0.0000000000000000     
   7.2058946412341210E-007   5.3423177985426013E-007   0.0000000000000000     
   8.1596225179226525E-007   6.5731952406509526E-007   0.0000000000000000     
   3.8640924975419576E-007   2.2834440568935695E-007   0.0000000000000000     
   4.8162517880764712E-007   3.1341573446031237E-007   0.0000000000000000     
   5.7416366005353231E-007   4.1047887111246860E-007   0.0000000000000000     
   6.6458938381522261E-007   5.2029670420019711E-007   0.0000000000000000     
   7.5346704041608815E-007   6.4363212227786982E-007   0.0000000000000000     
   3.5137833567817101E-007   2.1452643910269520E-007   0.0000000000000000     
   4.3937811845190469E-007   2.9966663013917856E-007   0.0000000000000000     
   5.2529879131921848E-007   3.9704497990855715E-007   0.0000000000000000     
   6.0940132190566824E-007   5.0728156418741137E-007   0.0000000000000000     
   6.9194667783680991E-007   6.3099645875232105E-007   0.0000000000000000     
   9.4502805810202997E-007   6.8848186340945638E-007   0.0000000000000000     
   1.0532679812868409E-006   8.2555456866567867E-007   0.0000000000000000     
   1.1593535899641043E-006   9.7584964464895061E-007   0.0000000000000000     
   1.2634197733798520E-006   1.1391889222659756E-006   0.0000000000000000     
   1.3656014207801179E-006   1.3153942324234588E-006   0.0000000000000000     
   8.7972002125701946E-007   6.7221674436021756E-007   0.0000000000000000     
   9.8090449434928314E-007   8.0931201658254002E-007   0.0000000000000000     
   1.0807119928873697E-006   9.6008137382899857E-007   0.0000000000000000     
   1.1788958543131610E-006   1.1240916030509089E-006   0.0000000000000000     
   1.2752094160685406E-006   1.3009094911995859E-006   0.0000000000000000     
   8.1596225179226525E-007   6.5731952406509526E-007   0.0000000000000000     
   9.1035581781838770E-007   7.9453658113172655E-007   0.0000000000000000     
   1.0036193256045265E-006   9.4558547042551041E-007   0.0000000000000000     
   1.0954342743358170E-006   1.1099559974093383E-006   0.0000000000000000     
   1.1854821631973971E-006   1.2871379675461034E-006   0.0000000000000000     
   7.5346704041608815E-007   6.4363212227786982E-007   0.0000000000000000     
   8.4123207554503879E-007   7.8104131281533619E-007   0.0000000000000000     
   9.2780295635313784E-007   9.3225365894436284E-007   0.0000000000000000     
   1.0129689053569878E-006   1.0967918427121949E-006   0.0000000000000000     
   1.0965191450731907E-006   1.2741785461660762E-006   0.0000000000000000     
   6.9194667783680991E-007   6.3099645875232105E-007   0.0000000000000000     
   7.7314339138012119E-007   7.6863926213546741E-007   0.0000000000000000     
   8.5299025337076806E-007   9.1997766389143405E-007   0.0000000000000000     
   9.3143361928583960E-007   1.0846088763304066E-006   0.0000000000000000     
   1.0084198446024248E-006   1.2621301117625702E-006   0.0000000000000000     
   1.3656014207801179E-006   1.3153942324234588E-006   0.0000000000000000     
   1.4660009939842033E-006   1.5042784539665675E-006   0.0000000000000000     
   1.5645912451044855E-006   1.7056186574943268E-006   0.0000000000000000     
   1.6613124988266090E-006   1.9191829615442226E-006   0.0000000000000000     
   1.7561050798362203E-006   2.1447394846537435E-006   0.0000000000000000     
   1.2752094160685406E-006   1.3009094911995859E-006   0.0000000000000000     
   1.3694670082867060E-006   1.4901548383602433E-006   0.0000000000000000     
   1.4617269318661129E-006   1.6916594971536882E-006   0.0000000000000000     
   1.5521084803965325E-006   1.9053083333346251E-006   0.0000000000000000     
   1.6407309474677362E-006   2.1309862126577587E-006   0.0000000000000000     
   1.1854821631973971E-006   1.2871379675461034E-006   0.0000000000000000     
   1.2735220477202078E-006   1.4766909719333312E-006   0.0000000000000000     
   1.3596232088184168E-006   1.6784537442070939E-006   0.0000000000000000     
   1.4439324837519944E-006   1.8923348036380956E-006   0.0000000000000000     
   1.5265967097809160E-006   2.1182426694970453E-006   0.0000000000000000     
   1.0965191450731907E-006   1.2741785461660762E-006   0.0000000000000000     
   1.1782928287656812E-006   1.4639955814693759E-006   0.0000000000000000     
   1.2583288326877271E-006   1.6660612812499597E-006   0.0000000000000000     
   1.3367159638399293E-006   1.8802531082518182E-006   0.0000000000000000     
   1.4135430292228885E-006   2.1064485252189402E-006   0.0000000000000000     
   1.0084198446024248E-006   1.2621301117625702E-006   0.0000000000000000     
   1.0839060679040978E-006   1.4521773937519220E-006   0.0000000000000000     
   1.1578925602003774E-006   1.6545419908777041E-006   0.0000000000000000     
   1.2303903756072697E-006   1.8690539829729719E-006   0.0000000000000000     
   1.3014105682407811E-006   2.0955434498707808E-006   0.0000000000000000     
   1.7561050798362203E-006   2.1447394846537435E-006   0.0000000000000000     
   1.8489206769865522E-006   2.3820514751681931E-006   0.0000000000000000     
   1.9397564358011916E-006   2.6308627006641419E-006   0.0000000000000000     
   2.0286208659713102E-006   2.8909120585259749E-006   0.0000000000000000     
   2.1155224771880828E-006   3.1619384461380783E-006   0.0000000000000000     
   1.6407309474677362E-006   2.1309862126577587E-006   0.0000000000000000     
   1.7276813173380196E-006   2.3685440965936301E-006   0.0000000000000000     
   1.8129173369397776E-006   2.6176973294761167E-006   0.0000000000000000     
   1.8963644438739299E-006   2.8781273513549316E-006   0.0000000000000000     
   1.9779480757413967E-006   3.1495156022797891E-006   0.0000000000000000     
   1.5265967097809160E-006   2.1182426694970453E-006   0.0000000000000000     
   1.6077250587766662E-006   2.3560470154313231E-006   0.0000000000000000     
   1.6872760410567888E-006   2.6054621325950188E-006   0.0000000000000000     
   1.7651705015503390E-006   2.8661634665188945E-006   0.0000000000000000     
   1.8413292851863759E-006   3.1378264627337193E-006   0.0000000000000000     
   1.4135430292228885E-006   2.1064485252189402E-006   0.0000000000000000     
   1.4888772252884085E-006   2.3444951549620204E-006   0.0000000000000000     
   1.5626993062931163E-006   2.5941212605585792E-006   0.0000000000000000     
   1.6349684159448410E-006   2.8550252651528410E-006   0.0000000000000000     
   1.7056436979514116E-006   3.1269055918890298E-006   0.0000000000000000     
   1.3014105682407811E-006   2.0955434498707808E-006   0.0000000000000000     
   1.3709631408591631E-006   2.3338234384664730E-006   0.0000000000000000     
   1.4390538907896530E-006   2.5836388639045352E-006   0.0000000000000000     
   1.5056875640017365E-006   2.8447176083917464E-006   0.0000000000000000     
   1.5708689064648974E-006   3.1167875541348823E-006   0.0000000000000000     
   2.1155224771880828E-006   3.1619384461380783E-006   0.0000000000000000     
   2.2004687731055586E-006   3.4436853422503937E-006   0.0000000000000000     
   2.2834632332292950E-006   3.7359145510750933E-006   0.0000000000000000     
   2.3645083310277224E-006   4.0383924581899002E-006   0.0000000000000000     
   2.4436065399692749E-006   4.3508854491725399E-006   0.0000000000000000     
   1.9779480757413967E-006   3.1495156022797891E-006   0.0000000000000000     
   2.0576130968527289E-006   3.4315625629172518E-006   0.0000000000000000     
   2.1353820783570010E-006   3.7240448764012802E-006   0.0000000000000000     
   2.2112970181129170E-006   4.0267582264826860E-006   0.0000000000000000     
   2.2853999139791830E-006   4.3394982969122793E-006   0.0000000000000000     
   1.8413292851863759E-006   3.1378264627337193E-006   0.0000000000000000     
   1.9156931312666340E-006   3.4201465843502190E-006   0.0000000000000000     
   1.9882823565835727E-006   3.7128993647989866E-006   0.0000000000000000     
   2.0591371723023281E-006   4.0158803550905740E-006   0.0000000000000000     
   2.1282977895880403E-006   4.3288851062355431E-006   0.0000000000000000     
   1.7056436979514116E-006   3.1269055918890298E-006   0.0000000000000000     
   1.7746938922124962E-006   3.4094742016521714E-006   0.0000000000000000     
   1.8421261233951096E-006   3.7024972062905043E-006   0.0000000000000000     
   1.9079571123581086E-006   4.0057542553930695E-006   0.0000000000000000     
   1.9722035799603443E-006   4.3190249985489069E-006   0.0000000000000000     
   1.5708689064648974E-006   3.1167875541348823E-006   0.0000000000000000     
   1.6346003955555363E-006   3.3995822099259817E-006   0.0000000000000000     
   1.6968754342777138E-006   3.6928575908981263E-006   0.0000000000000000     
   1.7576851570424073E-006   3.9963753387696646E-006   0.0000000000000000     
   1.8170206982605942E-006   4.3098970952589432E-006   0.0000000000000000     
   2.4436065399692749E-006   4.3508854491725399E-006   0.0000000000000000     
   2.5207592162917583E-006   4.6731571179734498E-006   0.0000000000000000     
   2.5959632473104761E-006   5.0049598920339060E-006   0.0000000000000000     
   2.6692144031101063E-006   5.3460434071678961E-006   0.0000000000000000     
   2.7405084537753260E-006   5.6961572991894059E-006   0.0000000000000000     
   2.2853999139791830E-006   4.3394982969122793E-006   0.0000000000000000     
   2.3577215182119800E-006   4.6620501727430282E-006   0.0000000000000000     
   2.4282476006573981E-006   4.9941565442365241E-006   0.0000000000000000     
   2.4969526855590034E-006   5.3355495029565139E-006   0.0000000000000000     
   2.5638112971603638E-006   5.6859611404667477E-006   0.0000000000000000     
   2.1282977895880403E-006   4.3288851062355431E-006   0.0000000000000000     
   2.1957940055088872E-006   4.6516989337872673E-006   0.0000000000000000     
   2.2616139607452271E-006   4.9840662114704410E-006   0.0000000000000000     
   2.3257353818804555E-006   5.3257210775525694E-006   0.0000000000000000     
   2.3881359954979739E-006   5.6763976703011725E-006   0.0000000000000000     
   1.9722035799603443E-006   4.3190249985489069E-006   0.0000000000000000     
   2.0348783380670941E-006   4.6420835019580207E-006   0.0000000000000000     
   2.0959785625693284E-006   4.9746814982643001E-006   0.0000000000000000     
   2.1554975203644383E-006   5.3165651367225934E-006   0.0000000000000000     
   2.2134284783498174E-006   5.6674805665877498E-006   0.0000000000000000     
   1.8170206982605942E-006   4.3098970952589432E-006   0.0000000000000000     
   1.8748761757712154E-006   4.6331839781071404E-006   0.0000000000000000     
   1.9312576411250725E-006   4.9659950091467514E-006   0.0000000000000000     
   1.9861741293009298E-006   5.3080886862331127E-006   0.0000000000000000     
   2.0396346752775558E-006   5.6592235072215565E-006   0.0000000000000000     
   2.7405084537753260E-006   5.6961572991894059E-006   0.0000000000000000     
   2.8098426294992155E-006   6.0550528661646020E-006   0.0000000000000000     
   2.8772200009084728E-006   6.4224880551683811E-006   0.0000000000000000     
   2.9426450987381955E-006   6.7982224755278132E-006   0.0000000000000000     
   3.0061224537234855E-006   7.1820157365699739E-006   0.0000000000000000     
   2.5638112971603638E-006   5.6859611404667477E-006   0.0000000000000000     
   2.6288062582817356E-006   6.0451316077097830E-006   0.0000000000000000     
   2.6919535860501365E-006   6.4128332931434156E-006   0.0000000000000000     
   2.7532775961692753E-006   6.7888466446042601E-006   0.0000000000000000     
   2.8128026043428608E-006   7.1729521099289228E-006   0.0000000000000000     
   2.3881359954979739E-006   5.6763976703011725E-006   0.0000000000000000     
   2.4488005174949512E-006   6.0358371680521823E-006   0.0000000000000000     
   2.5077416210236363E-006   6.4038089094152338E-006   0.0000000000000000     
   2.5649789685500475E-006   6.7800892730683836E-006   0.0000000000000000     
   2.6205322225402075E-006   7.1644546376896892E-006   0.0000000000000000     
   2.2134284783498174E-006   5.6674805665877498E-006   0.0000000000000000     
   2.2697663515136165E-006   6.0271762925605508E-006   0.0000000000000000     
   2.3245126472070260E-006   6.3954102411254845E-006   0.0000000000000000     
   2.3776705208719932E-006   6.7719426942129623E-006   0.0000000000000000     
   2.4292431279504678E-006   7.1565339337534029E-006   0.0000000000000000     
   2.0396346752775558E-006   5.6592235072215565E-006   0.0000000000000000     
   2.0916447047124881E-006   6.0191557266036351E-006   0.0000000000000000     
   2.1421952059783627E-006   6.3876326254158141E-006   0.0000000000000000     
   2.1912735581265926E-006   6.7643992413307732E-006   0.0000000000000000     
   2.2388671402085858E-006   7.1492006120211989E-006   0.0000000000000000     
   0.0000000000000000        0.0000000000000000        0.0000000000000000     
   8.3529708987676105E-008   3.3106948712924858E-008   0.0000000000000000     
   1.7142647578323092E-007   8.0487011777830142E-008   0.0000000000000000     
   2.6145458860671305E-007   1.4125517872949412E-007   0.0000000000000000     
   3.5137833567817101E-007   2.1452643910269520E-007   0.0000000000000000     
   0.0000000000000000        0.0000000000000000        0.0000000000000000     
   7.5124485859438305E-008   2.7103100188102906E-008   0.0000000000000000     
   1.5441091486153767E-007   7.0815730633122311E-008   0.0000000000000000     
   2.3594792968695801E-007   1.2965161693184663E-007   0.0000000000000000     
   3.1782417301635882E-007   2.0212448468106409E-007   0.0000000000000000     
   0.0000000000000000        0.0000000000000000        0.0000000000000000     
   6.7188174371632954E-008   2.2252468057034027E-008   0.0000000000000000     
   1.3828400132116376E-007   6.2745600546786108E-008   0.0000000000000000     
   2.1164057903246044E-007   1.1964499756019382E-007   0.0000000000000000     
   2.8561100568939098E-007   1.9111625918819480E-007   0.0000000000000000     
   0.0000000000000000        0.0000000000000000        0.0000000000000000     
   5.9653232765728722E-008   1.8350347121578692E-008   0.0000000000000000     
   1.2290464466920024E-007   5.6035865082116754E-008   0.0000000000000000     
   1.8833414366344423E-007   1.1105826728562679E-007   0.0000000000000000     
   2.5452163770149033E-007   1.8141926713612148E-007   0.0000000000000000     
   0.0000000000000000        0.0000000000000000        0.0000000000000000     
   5.2452119283194230E-008   1.5192032183597354E-008   0.0000000000000000     
   1.0813175441273820E-007   5.0445767802409533E-008   0.0000000000000000     
   1.6583023060013299E-007   1.0371437277923653E-007   0.0000000000000000     
   2.2433887305687982E-007   1.7295101303687827E-007   0.0000000000000000     
   3.5137833567817101E-007   2.1452643910269520E-007   0.0000000000000000     
   4.3937811845190469E-007   2.9966663013917856E-007   0.0000000000000000     
   5.2529879131921848E-007   3.9704497990855715E-007   0.0000000000000000     
   6.0940132190566824E-007   5.0728156418741137E-007   0.0000000000000000     
   6.9194667783680991E-007   6.3099645875232105E-007   0.0000000000000000     
   3.1782417301635882E-007   2.0212448468106409E-007   0.0000000000000000     
   3.9845120460999226E-007   2.8707034898407894E-007   0.0000000000000000     
   4.7753225254647800E-007   3.8461438297025789E-007   0.0000000000000000     
   5.5509346198402812E-007   4.9520404927548403E-007   0.0000000000000000     
   6.3116097808085458E-007   6.1928681053563987E-007   0.0000000000000000     
   2.8561100568939098E-007   1.9111625918819480E-007   0.0000000000000000     
   3.5880410889763976E-007   2.7567615630584806E-007   0.0000000000000000     
   4.3085163395015658E-007   3.7324614292469853E-007   0.0000000000000000     
   5.0164105556170773E-007   4.8409884384041252E-007   0.0000000000000000     
   5.7105984844705939E-007   6.0850688384865645E-007   0.0000000000000000     
   2.5452163770149033E-007   1.8141926713612148E-007   0.0000000000000000     
   3.2025314405199442E-007   2.6547072227382297E-007   0.0000000000000000     
   3.8513911724611696E-007   3.6296506728379174E-007   0.0000000000000000     
   4.4899612113064474E-007   4.7400488098729817E-007   0.0000000000000000     
   5.1164071955236491E-007   5.9869274220561261E-007   0.0000000000000000     
   2.2433887305687982E-007   1.7295101303687827E-007   0.0000000000000000     
   2.8261462281020311E-007   2.5644071705734031E-007   0.0000000000000000     
   3.4027688415022145E-007   3.5379596355945041E-007   0.0000000000000000     
   3.9711067718277707E-007   4.6496109382124217E-007   0.0000000000000000     
   4.5290102201371160E-007   5.8988044912074897E-007   0.0000000000000000     
   6.9194667783680991E-007   6.3099645875232105E-007   0.0000000000000000     
   7.7314339138012119E-007   7.6863926213546741E-007   0.0000000000000000     