 <VTKFile type="UnstructuredGrid"  version="0.1"   >
 <UnstructuredGrid>
 <Piece  NumberOfPoints="          1600 "  NumberOfCells="         1024 ">
 <Points>
 <DataArray  type="Float64" NumberOfComponents="3"  format="ascii" >
  -10.000000000000000        0.0000000000000000        0.0000000000000000     
  -9.6875000000000000        0.0000000000000000        0.0000000000000000     
  -9.3750000000000000        0.0000000000000000        0.0000000000000000     
  -9.0625000000000000        0.0000000000000000        0.0000000000000000     
  -8.7500000000000000        0.0000000000000000        0.0000000000000000     
  -10.000000000000000       0.15625000000000000        0.0000000000000000     
  -9.6875000000000000       0.15625000000000000        0.0000000000000000     
  -9.3750000000000000       0.15625000000000000        0.0000000000000000     
  -9.0625000000000018       0.15625000000000003        0.0000000000000000     
  -8.7500000000000000       0.15625000000000000        0.0000000000000000     
  -10.000000000000000       0.31250000000000006        0.0000000000000000     
  -9.6875000000000000       0.31250000000000000        0.0000000000000000     
  -9.3750000000000000       0.31250000000000000        0.0000000000000000     
  -9.0625000000000000       0.31250000000000006        0.0000000000000000     
  -8.7500000000000000       0.31250000000000000        0.0000000000000000     
  -10.000000000000000       0.46875000000000000        0.0000000000000000     
  -9.6875000000000000       0.46875000000000000        0.0000000000000000     
  -9.3750000000000000       0.46875000000000000        0.0000000000000000     
  -9.0625000000000000       0.46875000000000000        0.0000000000000000     
  -8.7500000000000000       0.46875000000000000        0.0000000000000000     
  -10.000000000000000       0.62500000000000011        0.0000000000000000     
  -9.6875000000000000       0.62500000000000000        0.0000000000000000     
  -9.3750000000000000       0.62499999999999989        0.0000000000000000     
  -9.0625000000000000       0.62500000000000011        0.0000000000000000     
  -8.7500000000000018       0.62500000000000022        0.0000000000000000     
  -8.7500000000000000        0.0000000000000000        0.0000000000000000     
  -8.4375000000000000        0.0000000000000000        0.0000000000000000     
  -8.1250000000000000        0.0000000000000000        0.0000000000000000     
  -7.8124999999999991        0.0000000000000000        0.0000000000000000     
  -7.5000000000000018        0.0000000000000000        0.0000000000000000     
  -8.7500000000000000       0.15625000000000000        0.0000000000000000     
  -8.4375000000000000       0.15625000000000000        0.0000000000000000     
  -8.1250000000000018       0.15625000000000000        0.0000000000000000     
  -7.8125000000000000       0.15625000000000003        0.0000000000000000     
  -7.5000000000000000       0.15625000000000000        0.0000000000000000     
  -8.7500000000000000       0.31250000000000000        0.0000000000000000     
  -8.4375000000000000       0.31250000000000000        0.0000000000000000     
  -8.1250000000000018       0.31250000000000000        0.0000000000000000     
  -7.8125000000000009       0.31250000000000006        0.0000000000000000     
  -7.5000000000000009       0.31250000000000000        0.0000000000000000     
  -8.7500000000000000       0.46875000000000000        0.0000000000000000     
  -8.4375000000000018       0.46875000000000000        0.0000000000000000     
  -8.1250000000000000       0.46875000000000000        0.0000000000000000     
  -7.8125000000000000       0.46875000000000000        0.0000000000000000     
  -7.5000000000000009       0.46875000000000006        0.0000000000000000     
  -8.7500000000000018       0.62500000000000022        0.0000000000000000     
  -8.4375000000000018       0.62500000000000011        0.0000000000000000     
  -8.1250000000000000       0.62499999999999989        0.0000000000000000     
  -7.8125000000000000       0.62500000000000011        0.0000000000000000     
  -7.5000000000000009       0.62500000000000011        0.0000000000000000     
  -7.5000000000000018        0.0000000000000000        0.0000000000000000     
  -7.1875000000000000        0.0000000000000000        0.0000000000000000     
  -6.8750000000000009        0.0000000000000000        0.0000000000000000     
  -6.5625000000000000        0.0000000000000000        0.0000000000000000     
  -6.2500000000000000        0.0000000000000000        0.0000000000000000     
  -7.5000000000000000       0.15625000000000000        0.0000000000000000     
  -7.1875000000000000       0.15625000000000000        0.0000000000000000     
  -6.8750000000000009       0.15625000000000003        0.0000000000000000     
  -6.5625000000000009       0.15625000000000003        0.0000000000000000     
  -6.2500000000000000       0.15625000000000000        0.0000000000000000     
  -7.5000000000000009       0.31250000000000000        0.0000000000000000     
  -7.1875000000000000       0.31250000000000000        0.0000000000000000     
  -6.8750000000000009       0.31250000000000011        0.0000000000000000     
  -6.5624999999999991       0.31249999999999989        0.0000000000000000     
  -6.2500000000000009       0.31250000000000000        0.0000000000000000     
  -7.5000000000000009       0.46875000000000006        0.0000000000000000     
  -7.1875000000000000       0.46875000000000000        0.0000000000000000     
  -6.8749999999999991       0.46874999999999994        0.0000000000000000     
  -6.5625000000000009       0.46875000000000000        0.0000000000000000     
  -6.2500000000000009       0.46875000000000006        0.0000000000000000     
  -7.5000000000000009       0.62500000000000011        0.0000000000000000     
  -7.1875000000000018       0.62500000000000022        0.0000000000000000     
  -6.8750000000000009       0.62500000000000000        0.0000000000000000     
  -6.5625000000000000       0.62500000000000000        0.0000000000000000     
  -6.2500000000000009       0.62500000000000011        0.0000000000000000     
  -6.2500000000000000        0.0000000000000000        0.0000000000000000     
  -5.9375000000000000        0.0000000000000000        0.0000000000000000     
  -5.6250000000000009        0.0000000000000000        0.0000000000000000     
  -5.3125000000000009        0.0000000000000000        0.0000000000000000     
  -5.0000000000000009        0.0000000000000000        0.0000000000000000     
  -6.2500000000000000       0.15625000000000000        0.0000000000000000     
  -5.9375000000000000       0.15625000000000000        0.0000000000000000     
  -5.6250000000000009       0.15625000000000003        0.0000000000000000     
  -5.3125000000000000       0.15625000000000003        0.0000000000000000     
  -5.0000000000000000       0.15625000000000000        0.0000000000000000     
  -6.2500000000000009       0.31250000000000000        0.0000000000000000     
  -5.9375000000000000       0.31250000000000000        0.0000000000000000     
  -5.6250000000000018       0.31250000000000011        0.0000000000000000     
  -5.3124999999999991       0.31249999999999989        0.0000000000000000     
  -5.0000000000000000       0.31250000000000000        0.0000000000000000     
  -6.2500000000000009       0.46875000000000006        0.0000000000000000     
  -5.9375000000000009       0.46875000000000000        0.0000000000000000     
  -5.6249999999999991       0.46874999999999994        0.0000000000000000     
  -5.3125000000000000       0.46875000000000000        0.0000000000000000     
  -5.0000000000000000       0.46875000000000006        0.0000000000000000     
  -6.2500000000000009       0.62500000000000011        0.0000000000000000     
  -5.9375000000000009       0.62500000000000022        0.0000000000000000     
  -5.6250000000000000       0.62500000000000000        0.0000000000000000     
  -5.3125000000000000       0.62500000000000000        0.0000000000000000     
  -5.0000000000000009       0.62500000000000011        0.0000000000000000     
  -5.0000000000000009        0.0000000000000000        0.0000000000000000     
  -4.6875000000000000        0.0000000000000000        0.0000000000000000     
  -4.3750000000000009        0.0000000000000000        0.0000000000000000     
  -4.0625000000000009        0.0000000000000000        0.0000000000000000     
  -3.7500000000000004        0.0000000000000000        0.0000000000000000     
  -5.0000000000000000       0.15625000000000000        0.0000000000000000     
  -4.6875000000000000       0.15625000000000000        0.0000000000000000     
  -4.3750000000000009       0.15625000000000003        0.0000000000000000     
  -4.0625000000000000       0.15625000000000003        0.0000000000000000     
  -3.7500000000000000       0.15625000000000000        0.0000000000000000     
  -5.0000000000000000       0.31250000000000000        0.0000000000000000     
  -4.6875000000000000       0.31250000000000000        0.0000000000000000     
  -4.3750000000000009       0.31250000000000011        0.0000000000000000     
  -4.0624999999999991       0.31249999999999989        0.0000000000000000     
  -3.7500000000000009       0.31250000000000000        0.0000000000000000     
  -5.0000000000000000       0.46875000000000006        0.0000000000000000     
  -4.6875000000000000       0.46875000000000000        0.0000000000000000     
  -4.3749999999999991       0.46874999999999994        0.0000000000000000     
  -4.0625000000000000       0.46875000000000000        0.0000000000000000     
  -3.7500000000000004       0.46875000000000006        0.0000000000000000     
  -5.0000000000000009       0.62500000000000011        0.0000000000000000     
  -4.6875000000000009       0.62500000000000022        0.0000000000000000     
  -4.3750000000000000       0.62500000000000000        0.0000000000000000     
[...]
 <PointData>
 <DataArray  type="Float64" Name="disp" NumberOfComponents="3" format="ascii">
   0.0000000000000000        0.0000000000000000        0.0000000000000000     
  -1.2867773283917487E-005  -3.6301387252602147E-005   0.0000000000000000     
  -1.8446205594118450E-005  -1.5583405546284051E-005   0.0000000000000000     
  -2.3564630105691643E-005   1.8499446298129048E-005   0.0000000000000000     
  -3.5052379993725839E-005   2.2292669459811798E-005   0.0000000000000000     
   0.0000000000000000        0.0000000000000000        0.0000000000000000     
  -2.2823556540841903E-005  -1.3918889940347534E-005   0.0000000000000000     
  -2.2026505207315509E-005  -8.5373032156841315E-006   0.0000000000000000     
  -1.4318845143026430E-005  -1.1352472872608640E-006   0.0000000000000000     
  -1.6410575491580280E-005  -8.9927296163288116E-006   0.0000000000000000     
   0.0000000000000000        0.0000000000000000        0.0000000000000000     
  -2.2820012608583548E-005  -1.9874653257291593E-006   0.0000000000000000     
  -2.0174978285938508E-005  -6.4003198939551842E-006   0.0000000000000000     
  -9.9446624505342133E-006  -1.4490822322249780E-005   0.0000000000000000     
  -1.0008830520839999E-005  -2.7511231228184645E-005   0.0000000000000000     
   0.0000000000000000        0.0000000000000000        0.0000000000000000     
  -1.7194689348155264E-005   2.4284403740354509E-006   0.0000000000000000     
  -1.5546747524230880E-005  -7.1817412285105138E-006   0.0000000000000000     
  -8.9131792152474541E-006  -2.2205239463795891E-005   0.0000000000000000     
  -1.1150989108225637E-005  -3.6016748987978662E-005   0.0000000000000000     
   0.0000000000000000        0.0000000000000000        0.0000000000000000     
  -1.0285134620569907E-005   2.2643809417287754E-006   0.0000000000000000     
  -1.0796935616436050E-005  -8.8908528667634314E-006   0.0000000000000000     
  -9.6954926241986166E-006  -2.4916459368857375E-005   0.0000000000000000     
  -1.5140895280457826E-005  -3.7263196507933798E-005   0.0000000000000000     
  -3.5052379993725839E-005   2.2292669459811798E-005   0.0000000000000000     
  -5.6728754387147371E-005  -3.2653514764224181E-005   0.0000000000000000     
  -8.0372916230232982E-005  -1.1397000460561993E-004   0.0000000000000000     
  -9.4753994421096986E-005  -1.7408297817817970E-004   0.0000000000000000     
  -8.8641117857853719E-005  -1.6541861359570782E-004   0.0000000000000000     
  -1.6410575491580280E-005  -8.9927296163288116E-006   0.0000000000000000     
  -3.9482503440791489E-005  -4.2735170992504176E-005   0.0000000000000000     
  -7.2598668355309775E-005  -8.6369645518863866E-005   0.0000000000000000     
  -9.9293917643993669E-005  -1.1724864062684993E-004   0.0000000000000000     
  -1.0310309871570176E-004  -1.1272464374790440E-004   0.0000000000000000     
  -1.0008830520839999E-005  -2.7511231228184645E-005   0.0000000000000000     
  -3.2463935199663760E-005  -4.5533921937492453E-005   0.0000000000000000     
  -6.6273178327167710E-005  -6.3911736608549783E-005   0.0000000000000000     
  -9.4616449027852664E-005  -7.6817634107894143E-005   0.0000000000000000     
  -1.0067363642621937E-004  -7.8424573302063042E-005   0.0000000000000000     
  -1.1150989108225637E-005  -3.6016748987978662E-005   0.0000000000000000     
  -3.1460595274673040E-005  -4.3754498135418773E-005   0.0000000000000000     
  -6.0416069324045438E-005  -4.7610849953283848E-005   0.0000000000000000     
  -8.3934896250285616E-005  -5.1541701166943510E-005   0.0000000000000000     
  -8.7934561047336331E-005  -5.9502948501767343E-005   0.0000000000000000     
  -1.5140895280457826E-005  -3.7263196507933798E-005   0.0000000000000000     
  -3.2260029276728197E-005  -4.0101630122512817E-005   0.0000000000000000     
  -5.4046964524181604E-005  -3.8481557631672222E-005   0.0000000000000000     
  -7.0462566988904304E-005  -4.0172584349629192E-005   0.0000000000000000     
  -7.1467702636982531E-005  -5.2944315590600927E-005   0.0000000000000000     
  -8.8641117857853719E-005  -1.6541861359570782E-004   0.0000000000000000     
  -5.7383517552657018E-005  -6.3206193713652762E-005   0.0000000000000000     
  -2.2650832973819262E-005   6.6112579645958531E-005   0.0000000000000000     
  -1.2692805703692340E-005   1.3329289991945476E-004   0.0000000000000000     
  -5.5759177324628105E-005   4.9089960543164705E-005   0.0000000000000000     
  -1.0310309871570176E-004  -1.1272464374790440E-004   0.0000000000000000     
  -7.4789064267695120E-005  -6.1979011324529731E-005   0.0000000000000000     
  -3.4026688150845236E-005  -1.5085758434699224E-006   0.0000000000000000     
  -7.7188495044261318E-006   2.0360961197470570E-005   0.0000000000000000     
  -2.2768427467711852E-005  -4.4696101699512696E-005   0.0000000000000000     
  -1.0067363642621937E-004  -7.8424573302063042E-005   0.0000000000000000     
  -7.4588056175904109E-005  -6.6902930164631317E-005   0.0000000000000000     
  -3.4356730047085265E-005  -5.6412749097322883E-005   0.0000000000000000     
  -4.9401063390766613E-006  -6.5111491608898955E-005   0.0000000000000000     
  -1.1298633351192146E-005  -1.1115661920812083E-004   0.0000000000000000     
  -8.7934561047336331E-005  -5.9502948501767343E-005   0.0000000000000000     
  -6.4374972657968752E-005  -7.4538719997797165E-005   0.0000000000000000     
  -2.9385735820267632E-005  -9.6046068953763592E-005   0.0000000000000000     
  -5.1388792211462021E-006  -1.2251027998306962E-004   0.0000000000000000     
  -1.3806431547517661E-005  -1.5241663769911809E-004   0.0000000000000000     
  -7.1467702636982531E-005  -5.2944315590600927E-005   0.0000000000000000     
  -5.1744293094573789E-005  -8.1447150587866824E-005   0.0000000000000000     
  -2.4858482628120670E-005  -1.1785466425095533E-004   0.0000000000000000     
  -9.0974711641370954E-006  -1.5122122540845711E-004   0.0000000000000000     
  -2.2748458629136980E-005  -1.7060120288896292E-004   0.0000000000000000     
  -5.5759177324628105E-005   4.9089960543164705E-005   0.0000000000000000     
  -1.6341537610468270E-004  -2.3006592511998756E-004   0.0000000000000000     
  -2.8048957705472928E-004  -5.6504396400069697E-004   0.0000000000000000     
  -3.3512564187134500E-004  -7.7103824310306235E-004   0.0000000000000000     
  -2.5546743225110714E-004  -6.6324284943118346E-004   0.0000000000000000     
  -2.2768427467711852E-005  -4.4696101699512696E-005   0.0000000000000000     
  -9.3707010356265557E-005  -2.1906679121770194E-004   0.0000000000000000     
  -1.8558102319080684E-004  -4.2138343478229079E-004   0.0000000000000000     
  -2.5106560016834457E-004  -5.4433968500395028E-004   0.0000000000000000     
  -2.4283587548588743E-004  -4.8062919449335208E-004   0.0000000000000000     
  -1.1298633351192146E-005  -1.1115661920812083E-004   0.0000000000000000     
  -6.7909726643504038E-005  -2.0194258739876021E-004   0.0000000000000000     
  -1.4731867081911831E-004  -3.0181182766463092E-004   0.0000000000000000     
  -2.1158771774189937E-004  -3.6434376548455692E-004   0.0000000000000000     
  -2.2277911927571175E-004  -3.4311782633736305E-004   0.0000000000000000     
  -1.3806431547517661E-005  -1.5241663769911809E-004   0.0000000000000000     
  -6.7801162236857124E-005  -1.8386576158000819E-004   0.0000000000000000     
  -1.4049880372888783E-004  -2.1341961056262421E-004   0.0000000000000000     
  -1.9551582921389484E-004  -2.3725547844854683E-004   0.0000000000000000     
  -1.9646871188216326E-004  -2.5155065903935647E-004   0.0000000000000000     
  -2.2748458629136980E-005  -1.7060120288896292E-004   0.0000000000000000     
  -7.5158954406783857E-005  -1.7000876167829203E-004   0.0000000000000000     
  -1.3991770570933974E-004  -1.6329725139117827E-004   0.0000000000000000     
  -1.8167376920621633E-004  -1.6927981779958444E-004   0.0000000000000000     
  -1.6507620156682533E-004  -2.0676960667547305E-004   0.0000000000000000     
  -2.5546743225110714E-004  -6.6324284943118346E-004   0.0000000000000000     
  -1.1249325540584669E-005  -1.5325006056269818E-004   0.0000000000000000     
   2.6143223831368793E-004   4.6175508363060087E-004   0.0000000000000000     
   3.8489030371518417E-004   7.8818935270338138E-004   0.0000000000000000     
   1.8143791506737786E-004   4.3246951621031266E-004   0.0000000000000000     
  -2.4283587548588743E-004  -4.8062919449335208E-004   0.0000000000000000     
  -1.3466431895385581E-004  -1.8083822296137609E-004   0.0000000000000000     
   1.5287257163684073E-005   1.7287654148026417E-004   0.0000000000000000     
   1.2775970498925425E-004   3.4046580361964579E-004   0.0000000000000000     
   1.2349387664537675E-004   8.1880268244846469E-005   0.0000000000000000     
  -2.2277911927571175E-004  -3.4311782633736305E-004   0.0000000000000000     
  -1.5724679347716203E-004  -2.1835927878432028E-004   0.0000000000000000     
  -4.8511323173826333E-005  -7.6876763716488407E-005   0.0000000000000000     
   5.5615042613977168E-005  -3.2124765107373778E-005   0.0000000000000000     
   1.0732005486593030E-004  -1.9755776693048337E-004   0.0000000000000000     
  -1.9646871188216326E-004  -2.5155065903935647E-004   0.0000000000000000     
  -1.2193157772922715E-004  -2.5654435681742472E-004   0.0000000000000000     
  -1.0309163971615700E-005  -2.6872341898828575E-004   0.0000000000000000     
   8.5036139368892746E-005  -3.0863660343826522E-004   0.0000000000000000     
   1.1074194227051985E-004  -3.9683266805368806E-004   0.0000000000000000     
  -1.6507620156682533E-004  -2.0676960667547305E-004   0.0000000000000000     
  -7.1653500328774613E-005  -2.8612458584658301E-004   0.0000000000000000     
   4.9548073497543528E-005  -3.8388201136375759E-004   0.0000000000000000     
   1.3260281803354032E-004  -4.6812396133361648E-004   0.0000000000000000     
   1.1158503140062714E-004  -5.0693251386277913E-004   0.0000000000000000     
   1.8143791506737786E-004   4.3246951621031266E-004   0.0000000000000000     
  -4.2016284760631984E-004  -7.8674747103817425E-004   0.0000000000000000     
  -1.0653537618027461E-003  -2.2018439132085945E-003   0.0000000000000000     
  -1.2931275693988011E-003  -2.9329619292117015E-003   0.0000000000000000     
  -6.4247701227138532E-004  -2.1002436379582434E-003   0.0000000000000000     
   1.2349387664537675E-004   8.1880268244846469E-005   0.0000000000000000     
  -4.2375782616392522E-005  -7.1007952050358095E-004   0.0000000000000000     
  -2.7714045502836410E-004  -1.6112136610751835E-003   0.0000000000000000     
  -4.5369772969381479E-004  -2.0644724125670317E-003   0.0000000000000000     
  -4.4494519571602046E-004  -1.5128060340761965E-003   0.0000000000000000     
   1.0732005486593030E-004  -1.9755776693048337E-004   0.0000000000000000     
   7.1804956941663991E-005  -6.2127006107418883E-004   0.0000000000000000     
  -3.3675038279392892E-005  -1.0899151710863236E-003   0.0000000000000000     
  -1.7885122553786209E-004  -1.3247864284295855E-003   0.0000000000000000     
  -3.3345489957436607E-004  -1.0471771645666739E-003   0.0000000000000000     
   1.1074194227051985E-004  -3.9683266805368806E-004   0.0000000000000000     
   3.3422172254146784E-005  -5.3942076191208397E-004   0.0000000000000000     
  -1.0040397298870913E-004  -6.8475159885580050E-004   0.0000000000000000     
  -2.2424097822387103E-004  -7.6673628391838963E-004   0.0000000000000000     
  -2.7159332821716237E-004  -7.1928592213340214E-004   0.0000000000000000     
   1.1158503140062714E-004  -5.0693251386277913E-004   0.0000000000000000     
  -4.6481335492647875E-005  -4.8363329217935376E-004   0.0000000000000000     
  -2.4277372058919007E-004  -4.4252609999740066E-004   0.0000000000000000     
  -3.4551990904476754E-004  -4.4315428615246952E-004   0.0000000000000000     
  -2.2294768601514875E-004  -5.4506119948010887E-004   0.0000000000000000     
  -6.4247701227138532E-004  -2.1002436379582434E-003   0.0000000000000000     
   1.0108705761118287E-003   6.2006201401865961E-004   0.0000000000000000     
   2.4442494959200753E-003   3.3272787696964285E-003   0.0000000000000000     
   2.0982594557318129E-003   3.5646235444301193E-003   0.0000000000000000     
  -1.5864998358744956E-003  -1.1246867464252152E-003   0.0000000000000000     
  -4.4494519571602046E-004  -1.5128060340761965E-003   0.0000000000000000     
  -1.7702421358396569E-004   2.3793646569951336E-004   0.0000000000000000     
   2.1094877067053401E-004   1.9303110796593461E-003   0.0000000000000000     
   5.2661353962995627E-004   1.9439750511018089E-003   0.0000000000000000     
   5.7760987587677809E-004  -1.3414143766745873E-003   0.0000000000000000     
  -3.3345489957436607E-004  -1.0471771645666739E-003   0.0000000000000000     
  -4.3961199776653212E-004  -1.7008533126960544E-004   0.0000000000000000     
  -3.2902702804001038E-004   6.2667263845232648E-004   0.0000000000000000     
   1.9420085904254107E-004   4.7157569128050838E-004   0.0000000000000000     
   1.3259725129184687E-003  -1.5068972261036710E-003   0.0000000000000000     
  -2.7159332821716237E-004  -7.1928592213340214E-004   0.0000000000000000     
  -1.8273913626940625E-004  -5.3410738832341815E-004   0.0000000000000000     
   7.4948970178574211E-005  -4.3409063646712796E-004   0.0000000000000000     
   5.2732473515095576E-004  -6.9992139033225084E-004   0.0000000000000000     
   1.2002419026719139E-003  -1.6122853736865029E-003   0.0000000000000000     
  -2.2294768601514875E-004  -5.4506119948010887E-004   0.0000000000000000     
   1.8774801107387517E-004  -7.8423371689664552E-004   0.0000000000000000     
   6.7350363571642090E-004  -1.1024328276415158E-003   0.0000000000000000     
   9.5228848913658402E-004  -1.4178630490349344E-003   0.0000000000000000     
   7.4207187255845893E-004  -1.6487288983971164E-003   0.0000000000000000     
  -1.5864998358744956E-003  -1.1246867464252152E-003   0.0000000000000000     
  -7.4653001196202601E-003  -1.0673851051513437E-002   0.0000000000000000     
  -3.5768989334263881E-003  -1.4921731775474118E-002   0.0000000000000000     
   2.4744074735486350E-002  -1.1836071869457290E-003   0.0000000000000000     
   9.2162991899897184E-002   4.3225244445433242E-002   0.0000000000000000     
   5.7760987587677809E-004  -1.3414143766745873E-003   0.0000000000000000     
   8.1769808575917087E-005  -7.8845721508135277E-003   0.0000000000000000     
  -1.6023056467779496E-003  -1.0997701980227511E-002   0.0000000000000000     
  -5.2058232281077116E-003  -2.3313797642712120E-003   0.0000000000000000     
  -1.1459989673336238E-002   2.6463818597700674E-002   0.0000000000000000     
   1.3259725129184687E-003  -1.5068972261036710E-003   0.0000000000000000     
   2.4614691927940264E-003  -5.2369385232244291E-003   0.0000000000000000     
  -2.0700620304886798E-004  -6.8734260344283970E-003   0.0000000000000000     
  -1.1287870366559394E-002  -1.6279089502678069E-003   0.0000000000000000     
  -3.5389539989686726E-002   1.5288063538705102E-002   0.0000000000000000     
   1.2002419026719139E-003  -1.6122853736865029E-003   0.0000000000000000     
   1.7793818033138016E-003  -3.0494595571433167E-003   0.0000000000000000     
   5.8973611384167068E-004  -3.2800858986989818E-003   0.0000000000000000     
  -4.3838759024312527E-003  -1.7039760319549369E-004   0.0000000000000000     
  -1.5156634982191743E-002   8.4133721245251425E-003   0.0000000000000000     
   7.4207187255845893E-004  -1.6487288983971164E-003   0.0000000000000000     
   1.4109141041498575E-004  -1.6406446409673798E-003   0.0000000000000000     
   7.6865801997449891E-004  -9.4886353366147459E-004   0.0000000000000000     
   4.6243509417141695E-003   9.4395141868574770E-004   0.0000000000000000     
   1.3707749416111192E-002   4.5551372112394304E-003   0.0000000000000000     
   0.0000000000000000        0.0000000000000000        0.0000000000000000     
  -1.0285134620569907E-005   2.2643809417287754E-006   0.0000000000000000     
  -1.0796935616436050E-005  -8.8908528667634314E-006   0.0000000000000000     
  -9.6954926241986166E-006  -2.4916459368857375E-005   0.0000000000000000     
  -1.5140895280457826E-005  -3.7263196507933798E-005   0.0000000000000000     
   0.0000000000000000        0.0000000000000000        0.0000000000000000     
  -5.5803428439001972E-006   1.2411859392301705E-007   0.0000000000000000     
  -8.0083319417023392E-006  -9.9145317811524233E-006   0.0000000000000000     
  -1.0957649939210400E-005  -2.3472629568472636E-005   0.0000000000000000     
  -1.8101979482228352E-005  -3.3906853211283889E-005   0.0000000000000000     
   0.0000000000000000        0.0000000000000000        0.0000000000000000     
  -3.1750946644584511E-006  -2.7157507176507070E-006   0.0000000000000000     
  -6.9743926187976710E-006  -1.0150020244216555E-005   0.0000000000000000     
  -1.2145498721266460E-005  -1.9562645090000775E-005   0.0000000000000000     
  -1.9436017830113618E-005  -2.8213461765306591E-005   0.0000000000000000     
   0.0000000000000000        0.0000000000000000        0.0000000000000000     
  -2.3156172856168787E-006  -5.3104226074715462E-006   0.0000000000000000     
  -6.9162404513948489E-006  -9.8721518535200501E-006   0.0000000000000000     
  -1.2899836606140680E-005  -1.5085587834881122E-005   0.0000000000000000     
  -1.9364372858661145E-005  -2.2351130648290390E-005   0.0000000000000000     
   0.0000000000000000        0.0000000000000000        0.0000000000000000     
  -2.2481379107476872E-006  -6.7150926900186574E-006   0.0000000000000000     
  -7.0549982431666892E-006  -9.3557602066271247E-006   0.0000000000000000     
  -1.2861461229606963E-005  -1.1940539704552988E-005   0.0000000000000000     
  -1.8108407102418454E-005  -1.8487968338523838E-005   0.0000000000000000     
  -1.5140895280457826E-005  -3.7263196507933798E-005   0.0000000000000000     
  -3.2260029276728197E-005  -4.0101630122512817E-005   0.0000000000000000     
  -5.4046964524181604E-005  -3.8481557631672222E-005   0.0000000000000000     
  -7.0462566988904304E-005  -4.0172584349629192E-005   0.0000000000000000     
  -7.1467702636982531E-005  -5.2944315590600927E-005   0.0000000000000000     
  -1.8101979482228352E-005  -3.3906853211283889E-005   0.0000000000000000     
  -3.1468615206243707E-005  -3.6824007664472090E-005   0.0000000000000000     
  -4.6499299705478144E-005  -3.6831403929481396E-005   0.0000000000000000     
  -5.6989387563836919E-005  -4.0786479519395551E-005   0.0000000000000000     
  -5.6734233365225218E-005  -5.5546671947298313E-005   0.0000000000000000     
  -1.9436017830113618E-005  -2.8213461765306591E-005   0.0000000000000000     
  -2.8968060621657001E-005  -3.4346157444865149E-005   0.0000000000000000     
  -3.8361761044490672E-005  -4.0139821961119323E-005   0.0000000000000000     
  -4.4611758865277790E-005  -4.8757395810939892E-005   0.0000000000000000     
  -4.4712693850681461E-005  -6.3361819491197712E-005   0.0000000000000000     
  -1.9364372858661145E-005  -2.2351130648290390E-005   0.0000000000000000     
  -2.5458905470911153E-005  -3.2636565376728267E-005   0.0000000000000000     
  -3.0536847317438164E-005  -4.5179217048154286E-005   0.0000000000000000     
  -3.4002700425937855E-005  -5.8783795676772804E-005   0.0000000000000000     
  -3.5260966824105866E-005  -7.2255011276788211E-005   0.0000000000000000     
  -1.8108407102418454E-005  -1.8487968338523838E-005   0.0000000000000000     
  -2.1641689701949210E-005  -3.1663717373097745E-005   0.0000000000000000     
  -2.3927057300539574E-005  -4.8721994512154632E-005   0.0000000000000000     
  -2.5835231778528007E-005  -6.5564141569404892E-005   0.0000000000000000     
  -2.8236935016252932E-005  -7.8091500358558929E-005   0.0000000000000000     
  -7.1467702636982531E-005  -5.2944315590600927E-005   0.0000000000000000     
  -5.1744293094573789E-005  -8.1447150587866824E-005   0.0000000000000000     