 <VTKFile type="UnstructuredGrid"  version="0.1"   >
 <UnstructuredGrid>
 <Piece  NumberOfPoints="          1600 "  NumberOfCells="         1024 ">
 <Points>
 <DataArray  type="Float64" NumberOfComponents="3"  format="ascii" >
  -10.000000000000000        0.0000000000000000        0.0000000000000000     
  -9.6875000000000000        0.0000000000000000        0.0000000000000000     
  -9.3750000000000000        0.0000000000000000        0.0000000000000000     
  -9.0625000000000000        0.0000000000000000        0.0000000000000000     
  -8.7500000000000000        0.0000000000000000        0.0000000000000000     
  -10.000000000000000       0.15625000000000000        0.0000000000000000     
  -9.6875000000000000       0.15625000000000000        0.0000000000000000     
  -9.3750000000000000       0.15625000000000000        0.0000000000000000     
  -9.0625000000000018       0.15625000000000003        0.0000000000000000     
  -8.7500000000000000       0.15625000000000000        0.0000000000000000     
  -10.000000000000000       0.31250000000000006        0.0000000000000000     
  -9.6875000000000000       0.31250000000000000        0.0000000000000000     
  -9.3750000000000000       0.31250000000000000        0.0000000000000000     
  -9.0625000000000000       0.31250000000000006        0.0000000000000000     
  -8.7500000000000000       0.31250000000000000        0.0000000000000000     
  -10.000000000000000       0.46875000000000000        0.0000000000000000     
  -9.6875000000000000       0.46875000000000000        0.0000000000000000     
  -9.3750000000000000       0.46875000000000000        0.0000000000000000     
  -9.0625000000000000       0.46875000000000000        0.0000000000000000     
  -8.7500000000000000       0.46875000000000000        0.0000000000000000     
  -10.000000000000000       0.62500000000000011        0.0000000000000000     
  -9.6875000000000000       0.62500000000000000        0.0000000000000000     
  -9.3750000000000000       0.62499999999999989        0.0000000000000000     
  -9.0625000000000000       0.62500000000000011        0.0000000000000000     
  -8.7500000000000018       0.62500000000000022        0.0000000000000000     
  -8.7500000000000000        0.0000000000000000        0.0000000000000000     
  -8.4375000000000000        0.0000000000000000        0.0000000000000000     
  -8.1250000000000000        0.0000000000000000        0.0000000000000000     
  -7.8124999999999991        0.0000000000000000        0.0000000000000000     
  -7.5000000000000018        0.0000000000000000        0.0000000000000000     
  -8.7500000000000000       0.15625000000000000        0.0000000000000000     
  -8.4375000000000000       0.15625000000000000        0.0000000000000000     
  -8.1250000000000018       0.15625000000000000        0.0000000000000000     
  -7.8125000000000000       0.15625000000000003        0.0000000000000000     
  -7.5000000000000000       0.15625000000000000        0.0000000000000000     
  -8.7500000000000000       0.31250000000000000        0.0000000000000000     
  -8.4375000000000000       0.31250000000000000        0.0000000000000000     
  -8.1250000000000018       0.31250000000000000        0.0000000000000000     
  -7.8125000000000009       0.31250000000000006        0.0000000000000000     
  -7.5000000000000009       0.31250000000000000        0.0000000000000000     
  -8.7500000000000000       0.46875000000000000        0.0000000000000000     
  -8.4375000000000018       0.46875000000000000        0.0000000000000000     
  -8.1250000000000000       0.46875000000000000        0.0000000000000000     
  -7.8125000000000000       0.46875000000000000        0.0000000000000000     
  -7.5000000000000009       0.46875000000000006        0.0000000000000000     
  -8.7500000000000018       0.62500000000000022        0.0000000000000000     
  -8.4375000000000018       0.62500000000000011        0.0000000000000000     
  -8.1250000000000000       0.62499999999999989        0.0000000000000000     
  -7.8125000000000000       0.62500000000000011        0.0000000000000000     
  -7.5000000000000009       0.62500000000000011        0.0000000000000000     
  -7.5000000000000018        0.0000000000000000        0.0000000000000000     
  -7.1875000000000000        0.0000000000000000        0.0000000000000000     
  -6.8750000000000009        0.0000000000000000        0.0000000000000000     
  -6.5625000000000000        0.0000000000000000        0.0000000000000000     
  -6.2500000000000000        0.0000000000000000        0.0000000000000000     
  -7.5000000000000000       0.15625000000000000        0.0000000000000000     
  -7.1875000000000000       0.15625000000000000        0.0000000000000000     
  -6.8750000000000009       0.15625000000000003        0.0000000000000000     
  -6.5625000000000009       0.15625000000000003        0.0000000000000000     
  -6.2500000000000000       0.15625000000000000        0.0000000000000000     
  -7.5000000000000009       0.31250000000000000        0.0000000000000000     
  -7.1875000000000000       0.31250000000000000        0.0000000000000000     
  -6.8750000000000009       0.31250000000000011        0.0000000000000000     
  -6.5624999999999991       0.31249999999999989        0.0000000000000000     
  -6.2500000000000009       0.31250000000000000        0.0000000000000000     
  -7.5000000000000009       0.46875000000000006        0.0000000000000000     
  -7.1875000000000000       0.46875000000000000        0.0000000000000000     
  -6.8749999999999991       0.46874999999999994        0.0000000000000000     
  -6.5625000000000009       0.46875000000000000        0.0000000000000000     
  -6.2500000000000009       0.46875000000000006        0.0000000000000000     
  -7.5000000000000009       0.62500000000000011        0.0000000000000000     
  -7.1875000000000018       0.62500000000000022        0.0000000000000000     
  -6.8750000000000009       0.62500000000000000        0.0000000000000000     
  -6.5625000000000000       0.62500000000000000        0.0000000000000000     
  -6.2500000000000009       0.62500000000000011        0.0000000000000000     
  -6.2500000000000000        0.0000000000000000        0.0000000000000000     
  -5.9375000000000000        0.0000000000000000        0.0000000000000000     
  -5.6250000000000009        0.0000000000000000        0.0000000000000000     
  -5.3125000000000009        0.0000000000000000        0.0000000000000000     
  -5.0000000000000009        0.0000000000000000        0.0000000000000000     
  -6.2500000000000000       0.15625000000000000        0.0000000000000000     
  -5.9375000000000000       0.15625000000000000        0.0000000000000000     
  -5.6250000000000009       0.15625000000000003        0.0000000000000000     
  -5.3125000000000000       0.15625000000000003        0.0000000000000000     
  -5.0000000000000000       0.15625000000000000        0.0000000000000000     
  -6.2500000000000009       0.31250000000000000        0.0000000000000000     
  -5.9375000000000000       0.31250000000000000        0.0000000000000000     
  -5.6250000000000018       0.31250000000000011        0.0000000000000000     
  -5.3124999999999991       0.31249999999999989        0.0000000000000000     
  -5.0000000000000000       0.31250000000000000        0.0000000000000000     
  -6.2500000000000009       0.46875000000000006        0.0000000000000000     
  -5.9375000000000009       0.46875000000000000        0.0000000000000000     
  -5.6249999999999991       0.46874999999999994        0.0000000000000000     
  -5.3125000000000000       0.46875000000000000        0.0000000000000000     
  -5.0000000000000000       0.46875000000000006        0.0000000000000000     
  -6.2500000000000009       0.62500000000000011        0.0000000000000000     
  -5.9375000000000009       0.62500000000000022        0.0000000000000000     
  -5.6250000000000000       0.62500000000000000        0.0000000000000000     
  -5.3125000000000000       0.62500000000000000        0.0000000000000000     
  -5.0000000000000009       0.62500000000000011        0.0000000000000000     
  -5.0000000000000009        0.0000000000000000        0.0000000000000000     
  -4.6875000000000000        0.0000000000000000        0.0000000000000000     
  -4.3750000000000009        0.0000000000000000        0.0000000000000000     
  -4.0625000000000009        0.0000000000000000        0.0000000000000000     
  -3.7500000000000004        0.0000000000000000        0.0000000000000000     
  -5.0000000000000000       0.15625000000000000        0.0000000000000000     
  -4.6875000000000000       0.15625000000000000        0.0000000000000000     
  -4.3750000000000009       0.15625000000000003        0.0000000000000000     
  -4.0625000000000000       0.15625000000000003        0.0000000000000000     
  -3.7500000000000000       0.15625000000000000        0.0000000000000000     
  -5.0000000000000000       0.31250000000000000        0.0000000000000000     
  -4.6875000000000000       0.31250000000000000        0.0000000000000000     
  -4.3750000000000009       0.31250000000000011        0.0000000000000000     
  -4.0624999999999991       0.31249999999999989        0.0000000000000000     
  -3.7500000000000009       0.31250000000000000        0.0000000000000000     
  -5.0000000000000000       0.46875000000000006        0.0000000000000000     
  -4.6875000000000000       0.46875000000000000        0.0000000000000000     
  -4.3749999999999991       0.46874999999999994        0.0000000000000000     
  -4.0625000000000000       0.46875000000000000        0.0000000000000000     
  -3.7500000000000004       0.46875000000000006        0.0000000000000000     
  -5.0000000000000009       0.62500000000000011        0.0000000000000000     
  -4.6875000000000009       0.62500000000000022        0.0000000000000000     
  -4.3750000000000000       0.62500000000000000        0.0000000000000000     
[...]
 <PointData>
 <DataArray  type="Float64" Name="disp" NumberOfComponents="3" format="ascii">
   0.0000000000000000        0.0000000000000000        0.0000000000000000     
   2.9247423922410870E-003   1.8033734936246750E-003   0.0000000000000000     
   5.3400172607969091E-003   3.0136749509590086E-003   0.0000000000000000     
   7.4337844006980135E-003   3.7857785949016219E-003   0.0000000000000000     
   9.3940036069749475E-003   4.2745586483511370E-003   0.0000000000000000     
   0.0000000000000000        0.0000000000000000        0.0000000000000000     
   2.5093874282833624E-003   1.5181833111524619E-003   0.0000000000000000     
   4.8468447109608122E-003   2.6343568048277036E-003   0.0000000000000000     
   7.0571004752357693E-003   3.4252215882042839E-003   0.0000000000000000     
   9.1848833483116517E-003   3.9674787684607594E-003   0.0000000000000000     
   0.0000000000000000        0.0000000000000000        0.0000000000000000     
   2.2613524922964418E-003   1.2881252846175899E-003   0.0000000000000000     
   4.5287022073094499E-003   2.3072163683115357E-003   0.0000000000000000     
   6.7774336566962801E-003   3.0843434531914651E-003   0.0000000000000000     
   8.9829313521141881E-003   3.6465767413670028E-003   0.0000000000000000     
   0.0000000000000000        0.0000000000000000        0.0000000000000000     
   2.1290900020251411E-003   1.1023146313583919E-003   0.0000000000000000     
   4.3350280944315887E-003   2.0243864947621310E-003   0.0000000000000000     
   6.5724712211741353E-003   2.7646911971118604E-003   0.0000000000000000     
   8.7960763262075799E-003   3.3217043453082208E-003   0.0000000000000000     
   0.0000000000000000        0.0000000000000000        0.0000000000000000     
   2.0610523752142792E-003   9.4986656871320061E-004   0.0000000000000000     
   4.2152607169159938E-003   1.7780000375311172E-003   0.0000000000000000     
   6.4199004447639228E-003   2.4678118272141677E-003   0.0000000000000000     
   8.6322469784168507E-003   3.0027133585227685E-003   0.0000000000000000     
   9.3940036069749475E-003   4.2745586483511370E-003   0.0000000000000000     
   1.1375183112619452E-002   4.6130890577894537E-003   0.0000000000000000     
   1.3398024902468081E-002   4.8472426640315961E-003   0.0000000000000000     
   1.5449779399318580E-002   5.0010920314758657E-003   0.0000000000000000     
   1.7517697025968695E-002   5.0987097245205641E-003   0.0000000000000000     
   9.1848833483116517E-003   3.9674787684607594E-003   0.0000000000000000     
   1.1269989462786017E-002   4.3314815637192005E-003   0.0000000000000000     
   1.3332484972832986E-002   4.5621916358757272E-003   0.0000000000000000     
   1.5387503538020812E-002   4.6982227577699693E-003   0.0000000000000000     
   1.7450178817917751E-002   4.7781887022415575E-003   0.0000000000000000     
   8.9829313521141881E-003   3.6465767413670028E-003   0.0000000000000000     
   1.1128454476312923E-002   4.0237175743533578E-003   0.0000000000000000     
   1.3228760896412202E-002   4.2564918512880533E-003   0.0000000000000000     
   1.5306483150624241E-002   4.3883566107141940E-003   0.0000000000000000     
   1.7384253777161258E-002   4.4627688911748845E-003   0.0000000000000000     
   8.7960763262075799E-003   3.3217043453082208E-003   0.0000000000000000     
   1.0971012428138261E-002   3.7011357804064026E-003   0.0000000000000000     
   1.3104496844178679E-002   3.9376322800797805E-003   0.0000000000000000     
   1.5214258966192886E-002   4.0730748561562773E-003   0.0000000000000000     
   1.7318028186044939E-002   4.1493445204638180E-003   0.0000000000000000     
   8.6322469784168507E-003   3.0027133585227685E-003   0.0000000000000000     
   1.0818097593200121E-002   3.3750748725928145E-003   0.0000000000000000     
   1.2977336987105360E-002   3.6131018920621161E-003   0.0000000000000000     
   1.5118371713790763E-002   3.7539587599439580E-003   0.0000000000000000     
   1.7249608326914523E-002   3.8348098192516312E-003   0.0000000000000000     
   1.7517697025968695E-002   5.0987097245205641E-003   0.0000000000000000     
   1.9591075752254449E-002   5.1608688234982365E-003   0.0000000000000000     
   2.1667403736164995E-002   5.1951444724784119E-003   0.0000000000000000     
   2.3746216682727736E-002   5.2058123314648588E-003   0.0000000000000000     
   2.5827050296970109E-002   5.1971480604613481E-003   0.0000000000000000     
   1.7450178817917751E-002   4.7781887022415575E-003   0.0000000000000000     
   1.9531724557471462E-002   4.8341152977429405E-003   0.0000000000000000     
   2.1627674843147187E-002   4.8716765951778351E-003   0.0000000000000000     
   2.3729643846789571E-002   4.8899587010627701E-003   0.0000000000000000     
   2.5829245740243249E-002   4.8880477219142840E-003   0.0000000000000000     
   1.7384253777161258E-002   4.4627688911748845E-003   0.0000000000000000     
   1.9479421113667166E-002   4.5156312560464471E-003   0.0000000000000000     
   2.1588196695512742E-002   4.5526283680380961E-003   0.0000000000000000     
   2.3701507857500435E-002   4.5718904146922583E-003   0.0000000000000000     
   2.5810281934432747E-002   4.5715475835513674E-003   0.0000000000000000     
   1.7318028186044939E-002   4.1493445204638180E-003   0.0000000000000000     
   1.9429624151445689E-002   4.2012899946597283E-003   0.0000000000000000     
   2.1547227533493252E-002   4.2356308397189842E-003   0.0000000000000000     
   2.3665109259132556E-002   4.2520543264459656E-003   0.0000000000000000     
   2.5777540255308512E-002   4.2502477256450523E-003   0.0000000000000000     
   1.7249608326914523E-002   3.8348098192516312E-003   0.0000000000000000     
   1.9377792401411138E-002   3.8869648098337553E-003   0.0000000000000000     
   2.1503025597320313E-002   3.9183150588802907E-003   0.0000000000000000     
   2.3623748595958085E-002   3.9308972904165372E-003   0.0000000000000000     
   2.5738402078640487E-002   3.9267482284677923E-003   0.0000000000000000     
   2.5827050296970109E-002   5.1971480604613481E-003   0.0000000000000000     
   2.7909093036525015E-002   5.1733533084935132E-003   0.0000000000000000     
   2.9990144369447375E-002   5.1383336806744510E-003   0.0000000000000000     
   3.2067656516397564E-002   5.0959207711391138E-003   0.0000000000000000     
   3.4139081698035978E-002   5.0499461740224610E-003   0.0000000000000000     
   2.5829245740243249E-002   4.8880477219142840E-003   0.0000000000000000     
   2.7919744175657027E-002   4.8662195000937006E-003   0.0000000000000000     
   3.0001000726396249E-002   4.8295088213415301E-003   0.0000000000000000     
   3.2074526446130430E-002   4.7841402072430735E-003   0.0000000000000000     
   3.4141832388529095E-002   4.7363381793836335E-003   0.0000000000000000     
   2.5810281934432747E-002   4.5715475835513674E-003   0.0000000000000000     
   2.7907293537403757E-002   4.5511070632624061E-003   0.0000000000000000     
   2.9992706382674133E-002   4.5155840468905743E-003   0.0000000000000000     
   3.2068531462796153E-002   4.4713707286056148E-003   0.0000000000000000     
   3.4136779770322138E-002   4.4248593025772841E-003   0.0000000000000000     
   2.5777540255308512E-002   4.2502477256450523E-003   0.0000000000000000     
   2.7879837976309226E-002   4.2308312032053562E-003   0.0000000000000000     
   2.9971505985795444E-002   4.1981565053549053E-003   0.0000000000000000     
   3.2053094374771121E-002   4.1575082734064631E-003   0.0000000000000000     
   3.4125153234240140E-002   4.1141711486727918E-003   0.0000000000000000     
   2.5738402078640487E-002   3.9267482284677923E-003   0.0000000000000000     
   2.7845474346917445E-002   3.9082071251282692E-003   0.0000000000000000     
   2.9943644183274633E-002   3.8788233447678492E-003   0.0000000000000000     
   3.2031637990431676E-002   3.8424487798253350E-003   0.0000000000000000     
   3.4108182171108149E-002   3.8029353227395264E-003   0.0000000000000000     
   3.4139081698035978E-002   5.0499461740224610E-003   0.0000000000000000     
   3.6201724548160660E-002   5.0033765829485578E-003   0.0000000000000000     
   3.8252299353120321E-002   4.9557190894979168E-003   0.0000000000000000     
   4.0287372812401259E-002   4.9056158847401591E-003   0.0000000000000000     
   4.2303511625489829E-002   4.8517091597449023E-003   0.0000000000000000     
   3.4141832388529095E-002   4.7363381793836335E-003   0.0000000000000000     
   3.6203397802745126E-002   4.6908542627517504E-003   0.0000000000000000     
   3.8255574719864967E-002   4.6465479959489232E-003   0.0000000000000000     
   4.0293683366458451E-002   4.6008059209798847E-003   0.0000000000000000     
   4.2313043969095410E-002   4.5510145798493698E-003   0.0000000000000000     
   3.4136779770322138E-002   4.4248593025772841E-003   0.0000000000000000     
   3.6198423234632800E-002   4.3809425112732352E-003   0.0000000000000000     
   3.8250277532422668E-002   4.3385152903527568E-003   0.0000000000000000     
   4.0288119277214686E-002   4.2949731237730418E-003   0.0000000000000000     
   4.2307725082531861E-002   4.2477114954912916E-003   0.0000000000000000     
   3.4125153234240140E-002   4.1141711486727918E-003   0.0000000000000000     
   3.6187658603296570E-002   4.0722321169188820E-003   0.0000000000000000     
   3.8238290313394860E-002   4.0309875417186706E-003   0.0000000000000000     
   4.0274154144079602E-002   3.9885361310983292E-003   0.0000000000000000     
   4.2292355874895340E-002   3.9429765930840271E-003   0.0000000000000000     
   3.4108182171108149E-002   3.8029353227395264E-003   0.0000000000000000     
   3.6171961668209303E-002   3.7633138680945618E-003   0.0000000000000000     
   3.8221495585383000E-002   3.7233313190559248E-003   0.0000000000000000     
   4.0255261566462738E-002   3.6819135809344409E-003   0.0000000000000000     
   4.2271737255282028E-002   3.6379865590409339E-003   0.0000000000000000     
   4.2303511625489829E-002   4.8517091597449023E-003   0.0000000000000000     
   4.4298453954904400E-002   4.7929668921595971E-003   0.0000000000000000     
   4.6274623815291571E-002   4.7296602059430023E-003   0.0000000000000000     
   4.8235616684329914E-002   4.6623860116317070E-003   0.0000000000000000     
   5.0185028039698043E-002   4.5917412197622950E-003   0.0000000000000000     
   4.2313043969095410E-002   4.5510145798493698E-003   0.0000000000000000     
   4.4310373534243670E-002   4.4951802627216444E-003   0.0000000000000000     
   4.6287976187962994E-002   4.4337882523990966E-003   0.0000000000000000     
   4.8249552836211171E-002   4.3679435798436436E-003   0.0000000000000000     
   5.0198804384945971E-002   4.2987512760172047E-003   0.0000000000000000     
   4.2307725082531861E-002   4.2477114954912916E-003   0.0000000000000000     
   4.4306077820912337E-002   4.1947066312864800E-003   0.0000000000000000     
   4.6284985400955381E-002   4.1362577242247244E-003   0.0000000000000000     
   4.8247461990275346E-002   4.0732447091939147E-003   0.0000000000000000     
   5.0196521756486770E-002   4.0065475210819546E-003   0.0000000000000000     
   4.2292355874895340E-002   3.9429765930840271E-003   0.0000000000000000     
   4.4290808767193102E-002   3.8927737397360007E-003   0.0000000000000000     
   4.6270656009549521E-002   3.8378567992507716E-003   0.0000000000000000     
   4.8233848272347744E-002   3.7785211038589318E-003   0.0000000000000000     
   5.0182336225970833E-002   3.7150619857910711E-003   0.0000000000000000     
   4.2271737255282028E-002   3.6379865590409339E-003   0.0000000000000000     
   4.4269808325368511E-002   3.5906093299520997E-003   0.0000000000000000     
   4.6249992569026260E-002   3.5393736553081334E-003   0.0000000000000000     
   4.8213215808253530E-002   3.4840044680151038E-003   0.0000000000000000     
   5.0160403865048574E-002   3.4242267009790802E-003   0.0000000000000000     
   5.0185028039698043E-002   4.5917412197622950E-003   0.0000000000000000     
   5.2125328021111902E-002   4.5180595903890524E-003   0.0000000000000000     
   5.4054485416436718E-002   4.4406222816370496E-003   0.0000000000000000     
   5.5969343675575024E-002   4.3584473011490576E-003   0.0000000000000000     
   5.7866746248429329E-002   4.2705526565678413E-003   0.0000000000000000     
   5.0198804384945971E-002   4.2987512760172047E-003   0.0000000000000000     
   5.2138285729035026E-002   4.2269517789028724E-003   0.0000000000000000     
   5.4065967718985371E-002   4.1518271545684434E-003   0.0000000000000000     
   5.5978675194213887E-002   4.0722948761028879E-003   0.0000000000000000     
   5.7873232994137484E-002   3.9872724165951785E-003   0.0000000000000000     
   5.0196521756486770E-002   4.0065475210819546E-003   0.0000000000000000     
   5.2134120789533514E-002   3.9368087568415989E-003   0.0000000000000000     
   5.4057982868677558E-002   3.8637216616850697E-003   0.0000000000000000     
   5.5964773695510263E-002   3.7867421428894430E-003   0.0000000000000000     
   5.7851158971623164E-002   3.7053261077318032E-003   0.0000000000000000     
   5.0182336225970833E-002   3.7150619857910711E-003   0.0000000000000000     
   5.2117150406054441E-002   3.6477729704076111E-003   0.0000000000000000     
   5.4035640809244459E-002   3.5769403555883121E-003   0.0000000000000000     
   5.5934237297439307E-002   3.5028486323427682E-003   0.0000000000000000     
   5.7809369732537363E-002   3.4257822916805673E-003   0.0000000000000000     
   5.0160403865048574E-002   3.4242267009790802E-003   0.0000000000000000     
   5.2091691782044890E-002   3.3599868658032851E-003   0.0000000000000000     
   5.4004051484417309E-002   3.2921177888795604E-003   0.0000000000000000     
   5.5893664117975972E-002   3.2216738752969053E-003   0.0000000000000000     
   5.7756710828531031E-002   3.1497095301443170E-003   0.0000000000000000     
   5.7866746248429329E-002   4.2705526565678413E-003   0.0000000000000000     
   5.9741337495728644E-002   4.1761450108117742E-003   0.0000000000000000     
   6.1578965421507793E-002   4.0751856479016389E-003   0.0000000000000000     
   6.3363278940628015E-002   3.9678245071338176E-003   0.0000000000000000     
   6.5077926967950589E-002   3.8542115278046973E-003   0.0000000000000000     
   5.7873232994137484E-002   3.9872724165951785E-003   0.0000000000000000     
   5.9743598796067360E-002   3.8963968148454067E-003   0.0000000000000000     
   6.1572261628891858E-002   3.8021833724981484E-003   0.0000000000000000     
   6.3338843359393701E-002   3.7078669569091012E-003   0.0000000000000000     
   6.5022965854355547E-002   3.6166824354339623E-003   0.0000000000000000     
   5.7851158971623164E-002   3.7053261077318032E-003   0.0000000000000000     
   5.9710901438656115E-002   3.6197515460146251E-003   0.0000000000000000     
   6.1526151998442954E-002   3.5335847776419519E-003   0.0000000000000000     
   6.3276158592865950E-002   3.4512142050432187E-003   0.0000000000000000     
   6.4940169163807460E-002   3.3770282306478661E-003   0.0000000000000000     
   5.7809369732537363E-002   3.4257822916805673E-003   0.0000000000000000     
   5.9654911295162552E-002   3.3466896372412254E-003   0.0000000000000000     
   6.1454508440840626E-002   3.2691742231839493E-003   0.0000000000000000     
   6.3189250943822745E-002   3.1975034162978594E-003   0.0000000000000000     
   6.4840228578360123E-002   3.1359445833720871E-003   0.0000000000000000     
   5.7756710828531031E-002   3.1497095301443170E-003   0.0000000000000000     
   5.9587294237254292E-002   3.0776915214470054E-003   0.0000000000000000     
   6.1371202866764479E-002   3.0087360689750433E-003   0.0000000000000000     
   6.3092146715042013E-002   2.9463717554347154E-003   0.0000000000000000     
   6.4733835780067320E-002   2.8941271635323077E-003   0.0000000000000000     
   0.0000000000000000        0.0000000000000000        0.0000000000000000     
   2.0610523752142792E-003   9.4986656871320061E-004   0.0000000000000000     
   4.2152607169159938E-003   1.7780000375311172E-003   0.0000000000000000     
   6.4199004447639228E-003   2.4678118272141677E-003   0.0000000000000000     
   8.6322469784168507E-003   3.0027133585227685E-003   0.0000000000000000     
   0.0000000000000000        0.0000000000000000        0.0000000000000000     
   2.0140163799713205E-003   8.2104287228840298E-004   0.0000000000000000     
   4.1267083839681253E-003   1.5607233668690405E-003   0.0000000000000000     
   6.3003640385274201E-003   2.1944389930847073E-003   0.0000000000000000     
   8.4972713701862105E-003   2.6975872602781957E-003   0.0000000000000000     
   0.0000000000000000        0.0000000000000000        0.0000000000000000     
   1.9780561858543291E-003   7.1069155076260214E-004   0.0000000000000000     
   4.0581592632602231E-003   1.3673569206221264E-003   0.0000000000000000     
   6.2063264533951711E-003   1.9420529136602990E-003   0.0000000000000000     
   8.3885749774366639E-003   2.4068363339588492E-003   0.0000000000000000     
   0.0000000000000000        0.0000000000000000        0.0000000000000000     
   1.9515703127840171E-003   6.1480717108245591E-004   0.0000000000000000     
   4.0062714870812196E-003   1.1932346535355179E-003   0.0000000000000000     
   6.1332075752649094E-003   1.7073204502153893E-003   0.0000000000000000     
   8.3014826297083955E-003   2.1291025639782711E-003   0.0000000000000000     
   0.0000000000000000        0.0000000000000000        0.0000000000000000     
   1.9329572806810974E-003   5.2938430019462191E-004   0.0000000000000000     
   3.9677031877200473E-003   1.0336905203543608E-003   0.0000000000000000     
   6.0764272900343730E-003   1.4869084640244208E-003   0.0000000000000000     
   8.2313191565415965E-003   1.8630279347500057E-003   0.0000000000000000     
   8.6322469784168507E-003   3.0027133585227685E-003   0.0000000000000000     
   1.0818097593200121E-002   3.3750748725928145E-003   0.0000000000000000     
   1.2977336987105360E-002   3.6131018920621161E-003   0.0000000000000000     
   1.5118371713790763E-002   3.7539587599439580E-003   0.0000000000000000     
   1.7249608326914523E-002   3.8348098192516312E-003   0.0000000000000000     
   8.4972713701862105E-003   2.6975872602781957E-003   0.0000000000000000     
   1.0686199070966344E-002   3.0550085160535707E-003   0.0000000000000000     
   1.2861838494829034E-002   3.2893144610599821E-003   0.0000000000000000     
   1.5025361661220326E-002   3.4325596342078490E-003   0.0000000000000000     
   1.7177940589586275E-002   3.5167985744075925E-003   0.0000000000000000     
   8.3885749774366639E-003   2.4068363339588492E-003   0.0000000000000000     
   1.0576025259023760E-002   2.7429502736356515E-003   0.0000000000000000     
   1.2760210531641827E-002   2.9683829769531827E-003   0.0000000000000000     
   1.4937767231237780E-002   3.1103089762100663E-003   0.0000000000000000     
   1.7105331793758557E-002   3.1959028037049256E-003   0.0000000000000000     
   8.3014826297083955E-003   2.1291025639782711E-003   0.0000000000000000     
   1.0484339379488951E-002   2.4390486826125378E-003   0.0000000000000000     
   1.2671575260499706E-002   2.6513452336352421E-003   0.0000000000000000     
   1.4857126385337791E-002   2.7886083294956050E-003   0.0000000000000000     
   1.7034928866600317E-002   2.8734540826428523E-003   0.0000000000000000     
   8.2313191565415965E-003   1.8630279347500057E-003   0.0000000000000000     
   1.0407904654478470E-002   2.1434522802577078E-003   0.0000000000000000     
   1.2595054844358647E-002   2.3392390249996784E-003   0.0000000000000000     
   1.4784977085015015E-002   2.4688592376094585E-003   0.0000000000000000     
   1.6969878735280452E-002   2.5507839867205868E-003   0.0000000000000000     
   1.7249608326914523E-002   3.8348098192516312E-003   0.0000000000000000     
   1.9377792401411138E-002   3.8869648098337553E-003   0.0000000000000000     