 <VTKFile type="UnstructuredGrid"  version="0.1"   >
 <UnstructuredGrid>
 <Piece  NumberOfPoints="          1600 "  NumberOfCells="         1024 ">
 <Points>
 <DataArray  type="Float64" NumberOfComponents="3"  format="ascii" >
  -10.000000000000000        0.0000000000000000        0.0000000000000000     
  -9.6875000000000000        0.0000000000000000        0.0000000000000000     
  -9.3750000000000000        0.0000000000000000        0.0000000000000000     
  -9.0625000000000000        0.0000000000000000        0.0000000000000000     
  -8.7500000000000000        0.0000000000000000        0.0000000000000000     
  -10.000000000000000       0.15625000000000000        0.0000000000000000     
  -9.6875000000000000       0.15625000000000000        0.0000000000000000     
  -9.3750000000000000       0.15625000000000000        0.0000000000000000     
  -9.0625000000000018       0.15625000000000003        0.0000000000000000     
  -8.7500000000000000       0.15625000000000000        0.0000000000000000     
  -10.000000000000000       0.31250000000000006        0.0000000000000000     
  -9.6875000000000000       0.31250000000000000        0.0000000000000000     
  -9.3750000000000000       0.31250000000000000        0.0000000000000000     
  -9.0625000000000000       0.31250000000000006        0.0000000000000000     
  -8.7500000000000000       0.31250000000000000        0.0000000000000000     
  -10.000000000000000       0.46875000000000000        0.0000000000000000     
  -9.6875000000000000       0.46875000000000000        0.0000000000000000     
  -9.3750000000000000       0.46875000000000000        0.0000000000000000     
  -9.0625000000000000       0.46875000000000000        0.0000000000000000     
  -8.7500000000000000       0.46875000000000000        0.0000000000000000     
  -10.000000000000000       0.62500000000000011        0.0000000000000000     
  -9.6875000000000000       0.62500000000000000        0.0000000000000000     
  -9.3750000000000000       0.62499999999999989        0.0000000000000000     
  -9.0625000000000000       0.62500000000000011        0.0000000000000000     
  -8.7500000000000018       0.62500000000000022        0.0000000000000000     
  -8.7500000000000000        0.0000000000000000        0.0000000000000000     
  -8.4375000000000000        0.0000000000000000        0.0000000000000000     
  -8.1250000000000000        0.0000000000000000        0.0000000000000000     
  -7.8124999999999991        0.0000000000000000        0.0000000000000000     
  -7.5000000000000018        0.0000000000000000        0.0000000000000000     
  -8.7500000000000000       0.15625000000000000        0.0000000000000000     
  -8.4375000000000000       0.15625000000000000        0.0000000000000000     
  -8.1250000000000018       0.15625000000000000        0.0000000000000000     
  -7.8125000000000000       0.15625000000000003        0.0000000000000000     
  -7.5000000000000000       0.15625000000000000        0.0000000000000000     
  -8.7500000000000000       0.31250000000000000        0.0000000000000000     
  -8.4375000000000000       0.31250000000000000        0.0000000000000000     
  -8.1250000000000018       0.31250000000000000        0.0000000000000000     
  -7.8125000000000009       0.31250000000000006        0.0000000000000000     
  -7.5000000000000009       0.31250000000000000        0.0000000000000000     
  -8.7500000000000000       0.46875000000000000        0.0000000000000000     
  -8.4375000000000018       0.46875000000000000        0.0000000000000000     
  -8.1250000000000000       0.46875000000000000        0.0000000000000000     
  -7.8125000000000000       0.46875000000000000        0.0000000000000000     
  -7.5000000000000009       0.46875000000000006        0.0000000000000000     
  -8.7500000000000018       0.62500000000000022        0.0000000000000000     
  -8.4375000000000018       0.62500000000000011        0.0000000000000000     
  -8.1250000000000000       0.62499999999999989        0.0000000000000000     
  -7.8125000000000000       0.62500000000000011        0.0000000000000000     
  -7.5000000000000009       0.62500000000000011        0.0000000000000000     
  -7.5000000000000018        0.0000000000000000        0.0000000000000000     
  -7.1875000000000000        0.0000000000000000        0.0000000000000000     
  -6.8750000000000009        0.0000000000000000        0.0000000000000000     
  -6.5625000000000000        0.0000000000000000        0.0000000000000000     
  -6.2500000000000000        0.0000000000000000        0.0000000000000000     
  -7.5000000000000000       0.15625000000000000        0.0000000000000000     
  -7.1875000000000000       0.15625000000000000        0.0000000000000000     
  -6.8750000000000009       0.15625000000000003        0.0000000000000000     
  -6.5625000000000009       0.15625000000000003        0.0000000000000000     
  -6.2500000000000000       0.15625000000000000        0.0000000000000000     
  -7.5000000000000009       0.31250000000000000        0.0000000000000000     
  -7.1875000000000000       0.31250000000000000        0.0000000000000000     
  -6.8750000000000009       0.31250000000000011        0.0000000000000000     
  -6.5624999999999991       0.31249999999999989        0.0000000000000000     
  -6.2500000000000009       0.31250000000000000        0.0000000000000000     
  -7.5000000000000009       0.46875000000000006        0.0000000000000000     
  -7.1875000000000000       0.46875000000000000        0.0000000000000000     
  -6.8749999999999991       0.46874999999999994        0.0000000000000000     
  -6.5625000000000009       0.46875000000000000        0.0000000000000000     
  -6.2500000000000009       0.46875000000000006        0.0000000000000000     
  -7.5000000000000009       0.62500000000000011        0.0000000000000000     
  -7.1875000000000018       0.62500000000000022        0.0000000000000000     
  -6.8750000000000009       0.62500000000000000        0.0000000000000000     
  -6.5625000000000000       0.62500000000000000        0.0000000000000000     
  -6.2500000000000009       0.62500000000000011        0.0000000000000000     
  -6.2500000000000000        0.0000000000000000        0.0000000000000000     
  -5.9375000000000000        0.0000000000000000        0.0000000000000000     
  -5.6250000000000009        0.0000000000000000        0.0000000000000000     
  -5.3125000000000009        0.0000000000000000        0.0000000000000000     
  -5.0000000000000009        0.0000000000000000        0.0000000000000000     
  -6.2500000000000000       0.15625000000000000        0.0000000000000000     
  -5.9375000000000000       0.15625000000000000        0.0000000000000000     
  -5.6250000000000009       0.15625000000000003        0.0000000000000000     
  -5.3125000000000000       0.15625000000000003        0.0000000000000000     
  -5.0000000000000000       0.15625000000000000        0.0000000000000000     
  -6.2500000000000009       0.31250000000000000        0.0000000000000000     
  -5.9375000000000000       0.31250000000000000        0.0000000000000000     
  -5.6250000000000018       0.31250000000000011        0.0000000000000000     
  -5.3124999999999991       0.31249999999999989        0.0000000000000000     
  -5.0000000000000000       0.31250000000000000        0.0000000000000000     
  -6.2500000000000009       0.46875000000000006        0.0000000000000000     
  -5.9375000000000009       0.46875000000000000        0.0000000000000000     
  -5.6249999999999991       0.46874999999999994        0.0000000000000000     
  -5.3125000000000000       0.46875000000000000        0.0000000000000000     
  -5.0000000000000000       0.46875000000000006        0.0000000000000000     
  -6.2500000000000009       0.62500000000000011        0.0000000000000000     
  -5.9375000000000009       0.62500000000000022        0.0000000000000000     
  -5.6250000000000000       0.62500000000000000        0.0000000000000000     
  -5.3125000000000000       0.62500000000000000        0.0000000000000000     
  -5.0000000000000009       0.62500000000000011        0.0000000000000000     
  -5.0000000000000009        0.0000000000000000        0.0000000000000000     
  -4.6875000000000000        0.0000000000000000        0.0000000000000000     
  -4.3750000000000009        0.0000000000000000        0.0000000000000000     
  -4.0625000000000009        0.0000000000000000        0.0000000000000000     
  -3.7500000000000004        0.0000000000000000        0.0000000000000000     
  -5.0000000000000000       0.15625000000000000        0.0000000000000000     
  -4.6875000000000000       0.15625000000000000        0.0000000000000000     
  -4.3750000000000009       0.15625000000000003        0.0000000000000000     
  -4.0625000000000000       0.15625000000000003        0.0000000000000000     
  -3.7500000000000000       0.15625000000000000        0.0000000000000000     
  -5.0000000000000000       0.31250000000000000        0.0000000000000000     
  -4.6875000000000000       0.31250000000000000        0.0000000000000000     
  -4.3750000000000009       0.31250000000000011        0.0000000000000000     
  -4.0624999999999991       0.31249999999999989        0.0000000000000000     
  -3.7500000000000009       0.31250000000000000        0.0000000000000000     
  -5.0000000000000000       0.46875000000000006        0.0000000000000000     
  -4.6875000000000000       0.46875000000000000        0.0000000000000000     
  -4.3749999999999991       0.46874999999999994        0.0000000000000000     
  -4.0625000000000000       0.46875000000000000        0.0000000000000000     
  -3.7500000000000004       0.46875000000000006        0.0000000000000000     
  -5.0000000000000009       0.62500000000000011        0.0000000000000000     
  -4.6875000000000009       0.62500000000000022        0.0000000000000000     
  -4.3750000000000000       0.62500000000000000        0.0000000000000000     
[...]
 <PointData>
 <DataArray  type="Float64" Name="disp" NumberOfComponents="3" format="ascii">
   0.0000000000000000        0.0000000000000000        0.0000000000000000     
   8.1910732514043488E-003   6.5194464389505876E-003   0.0000000000000000     
   1.4028542236436022E-002   1.3221750523531878E-002   0.0000000000000000     
   1.8045299180998439E-002   2.0060531016783817E-002   0.0000000000000000     
   2.0774236310995033E-002   2.6989406681746330E-002   0.0000000000000000     
   0.0000000000000000        0.0000000000000000        0.0000000000000000     
   5.9583836758689808E-003   5.8516066777369877E-003   0.0000000000000000     
   1.0815313282970486E-002   1.2413387537991601E-002   0.0000000000000000     
   1.4638374264242417E-002   1.9422647311563238E-002   0.0000000000000000     
   1.7495152062622660E-002   2.6616690729251283E-002   0.0000000000000000     
   0.0000000000000000        0.0000000000000000        0.0000000000000000     
   4.4625648960379188E-003   5.4202594696711025E-003   0.0000000000000000     
   8.4807612891435354E-003   1.1847104226463628E-002   0.0000000000000000     
   1.1916845283329192E-002   1.8909463604168238E-002   0.0000000000000000     
   1.4633072982607222E-002   2.6236266936575579E-002   0.0000000000000000     
   0.0000000000000000        0.0000000000000000        0.0000000000000000     
   3.4928285447097338E-003   5.1699976890873687E-003   0.0000000000000000     
   6.8015426366874118E-003   1.1474904561646659E-002   0.0000000000000000     
   9.7506765454070492E-003   1.8511359664675788E-002   0.0000000000000000     
   1.2164764540342678E-002   2.5876002045172677E-002   0.0000000000000000     
   0.0000000000000000        0.0000000000000000        0.0000000000000000     
   2.8383862546830022E-003   5.0454142103202263E-003   0.0000000000000000     
   5.5543137073343542E-003   1.1248792516239389E-002   0.0000000000000000     
   8.0098323576242737E-003   1.8218715263162870E-002   0.0000000000000000     
   1.0066992205222985E-002   2.5563762796496040E-002   0.0000000000000000     
   2.0774236310995033E-002   2.6989406681746330E-002   0.0000000000000000     
   2.2663098912994176E-002   3.3958425825626019E-002   0.0000000000000000     
   2.3819044516224071E-002   4.0903354932296063E-002   0.0000000000000000     
   2.4264083710577887E-002   4.7756390029796300E-002   0.0000000000000000     
   2.4020227085948771E-002   5.4449727146166568E-002   0.0000000000000000     
   1.7495152062622660E-002   2.6616690729251283E-002   0.0000000000000000     
   1.9456407335116124E-002   3.3771672207209794E-002   0.0000000000000000     
   2.0605601594995686E-002   4.0819144903011466E-002   0.0000000000000000     
   2.1029371569601212E-002   4.7729511659583605E-002   0.0000000000000000     
   2.0814353986272578E-002   5.4473175319853552E-002   0.0000000000000000     
   1.4633072982607222E-002   2.6236266936575579E-002   0.0000000000000000     
   1.6529550906587920E-002   3.3514412501983636E-002   0.0000000000000000     
   1.7657787237273348E-002   4.0662674356719768E-002   0.0000000000000000     
   1.8107140572263522E-002   4.7657795501618652E-002   0.0000000000000000     
   1.7966969509158461E-002   5.4476518937514984E-002   0.0000000000000000     
   1.2164764540342678E-002   2.5876002045172677E-002   0.0000000000000000     
   1.3907087513440735E-002   3.3226562522561044E-002   0.0000000000000000     
   1.4995912846537353E-002   4.0465139005967869E-002   0.0000000000000000     
   1.5488254543941100E-002   4.7554921176945958E-002   0.0000000000000000     
   1.5441126609960536E-002   5.4459098717048154E-002   0.0000000000000000     
   1.0066992205222985E-002   2.5563762796496040E-002   0.0000000000000000     
   1.1613575041705747E-002   3.2948038081555477E-002   0.0000000000000000     
   1.2640289826268001E-002   4.0257734563302602E-002   0.0000000000000000     
   1.3163577310010225E-002   4.7434568306610039E-002   0.0000000000000000     
   1.3199878244032914E-002   5.4420255376350424E-002   0.0000000000000000     
   2.4020227085948771E-002   5.4449727146166568E-002   0.0000000000000000     
   2.3112991052395240E-002   6.0908002062749121E-002   0.0000000000000000     
   2.1581915300637345E-002   6.7025609574096021E-002   0.0000000000000000     
   1.9470045341560469E-002   7.2689384228061704E-002   0.0000000000000000     
   1.6820426686050018E-002   7.7786160572500637E-002   0.0000000000000000     
   2.0814353986272578E-002   5.4473175319853552E-002   0.0000000000000000     
   2.0035603891821824E-002   6.1004418052174485E-002   0.0000000000000000     
   1.8721849610949661E-002   6.7213039326602803E-002   0.0000000000000000     
   1.6890237787828961E-002   7.2972717938620715E-002   0.0000000000000000     
   1.4557915066632591E-002   7.8157132683710454E-002   0.0000000000000000     
   1.7966969509158461E-002   5.4476518937514984E-002   0.0000000000000000     
   1.7314119541873417E-002   6.1078416587887346E-002   0.0000000000000000     
   1.6175383749584629E-002   6.7354376066790136E-002   0.0000000000000000     
   1.4565042107783562E-002   7.3178113910921633E-002   0.0000000000000000     
   1.2497374591961699E-002   7.8423346656980142E-002   0.0000000000000000     
   1.5441126609960536E-002   5.4459098717048154E-002   0.0000000000000000     
   1.4905979762944751E-002   6.1127188231262723E-002   0.0000000000000000     
   1.3912011577405002E-002   6.7454014018320060E-002   0.0000000000000000     
   1.2482856341893108E-002   7.3320727300386065E-002   0.0000000000000000     
   1.0642148344960859E-002   7.8608479299626680E-002   0.0000000000000000     
   1.3199878244032914E-002   5.4420255376350424E-002   0.0000000000000000     
   1.2768626315430536E-002   6.1147923543675632E-002   0.0000000000000000     
   1.1901226955273550E-002   6.7516347404854626E-002   0.0000000000000000     
   1.0632078530626421E-002   7.3415713262435664E-002   0.0000000000000000     
   8.9955794085536025E-003   7.8736207418966975E-002   0.0000000000000000     
   1.6820426686050018E-002   7.7786160572500637E-002   0.0000000000000000     
   1.3678869430583562E-002   8.2214066303318942E-002   0.0000000000000000     
   1.0102242014007386E-002   8.5916401708629478E-002   0.0000000000000000     
   6.1501774607599508E-003   8.8847760224596686E-002   0.0000000000000000     
   1.8823087952797185E-003   9.0962735287385049E-002   0.0000000000000000     
   1.4557915066632591E-002   7.8157132683710454E-002   0.0000000000000000     
   1.1750154846704950E-002   8.2654175972058402E-002   0.0000000000000000     
   8.5247375480765296E-003   8.6408594672667566E-002   0.0000000000000000     
   4.9475703459493422E-003   8.9379349269245040E-002   0.0000000000000000     
   1.0845604155254049E-003   9.1525400245498059E-002   0.0000000000000000     
   1.2497374591961699E-002   7.8423346656980142E-002   0.0000000000000000     
   9.9943445222293297E-003   8.2977655773447179E-002   0.0000000000000000     
   7.1086485971720813E-003   8.6784082455937148E-002   0.0000000000000000     
   3.9006668599943957E-003   8.9799532831847537E-002   0.0000000000000000     
   4.3077935390072785E-004   9.1980913028576070E-002   0.0000000000000000     
   1.0642148344960859E-002   7.8608479299626680E-002   0.0000000000000000     
   8.4177197052101721E-003   8.3210148976027881E-002   0.0000000000000000     
   5.8541938614434094E-003   8.7065526240856297E-002   0.0000000000000000     
   3.0003920825130582E-003   9.0126128743198780E-002   0.0000000000000000     
  -9.4864362728405938E-005   9.2343474132142014E-002   0.0000000000000000     
   8.9955794085536025E-003   7.8736207418966975E-002   0.0000000000000000     
   7.0265616437009508E-003   8.3377298848343051E-002   0.0000000000000000     
   4.7615920410398948E-003   8.7275587209843214E-002   0.0000000000000000     
   2.2376710931232722E-003   9.0376954834093262E-002   0.0000000000000000     
  -5.0820070749608829E-004   9.2627284051718800E-002   0.0000000000000000     
   1.8823087952797185E-003   9.0962735287385049E-002   0.0000000000000000     
  -2.6390090811321603E-003   9.2218712875963532E-002   0.0000000000000000     
  -7.3405337597237585E-003   9.2584249140519270E-002   0.0000000000000000     
  -1.2146300954880458E-002   9.2030692774043826E-002   0.0000000000000000     
  -1.6980346380987634E-002   9.0529392469528833E-002   0.0000000000000000     
   1.0845604155254049E-003   9.1525400245498059E-002   0.0000000000000000     
  -2.9990773171987666E-003   9.2807535867460683E-002   0.0000000000000000     
  -7.2408969230486593E-003   9.3193855530474906E-002   0.0000000000000000     
  -1.1579144722055257E-002   9.2654286412209630E-002   0.0000000000000000     
  -1.5952067034249534E-002   9.1158755690333854E-002   0.0000000000000000     
   4.3077935390072785E-004   9.1980913028576070E-002   0.0000000000000000     
  -3.2415393506016747E-003   9.3287650874987055E-002   0.0000000000000000     
  -7.0604365737943426E-003   9.3689261005812083E-002   0.0000000000000000     
  -1.0970965108655993E-002   9.3157779757249523E-002   0.0000000000000000     
  -1.4918177748165361E-002   9.1665243465497842E-002   0.0000000000000000     
  -9.4864362728405938E-005   9.2343474132142014E-002   0.0000000000000000     
  -3.3821893136979655E-003   9.3673132035370740E-002   0.0000000000000000     
  -6.8099370428904519E-003   9.4086879994961667E-002   0.0000000000000000     
  -1.0325896931070165E-002   9.3560547531589572E-002   0.0000000000000000     
  -1.3877858359001389E-002   9.2069964165928969E-002   0.0000000000000000     
  -5.0820070749608829E-004   9.2627284051718800E-002   0.0000000000000000     
  -3.4368213388447253E-003   9.3978053485439930E-002   0.0000000000000000     
  -6.5001826612666484E-003   9.4403126926354705E-002   0.0000000000000000     
  -9.6480750056852412E-003   9.3881964457655662E-002   0.0000000000000000     
  -1.2830288703023881E-002   9.2394026162535364E-002   0.0000000000000000     
  -1.6980346380987634E-002   9.0529392469528833E-002   0.0000000000000000     
  -2.1771927419496396E-002   8.8066364345030984E-002   0.0000000000000000     
  -2.6471188120120778E-002   8.4686294218867753E-002   0.0000000000000000     
  -3.1033494199640486E-002   8.0448535334421548E-002   0.0000000000000000     
  -3.5414211374835289E-002   7.5412440935074890E-002   0.0000000000000000     
  -1.5952067034249534E-002   9.1158755690333854E-002   0.0000000000000000     
  -2.0300447362561307E-002   8.8692182119033958E-002   0.0000000000000000     
  -2.4575217941515688E-002   8.5299450758566486E-002   0.0000000000000000     
  -2.8729848188536595E-002   8.1040438245705462E-002   0.0000000000000000     
  -3.2717807521047977E-002   7.5975021217224922E-002   0.0000000000000000     
  -1.4918177748165361E-002   9.1665243465497842E-002   0.0000000000000000     
  -1.8848895266097065E-002   8.9197984134446698E-002   0.0000000000000000     
  -2.2717010359409314E-002   8.5799516438751305E-002   0.0000000000000000     
  -2.6478183705856206E-002   8.1527650720758127E-002   0.0000000000000000     
  -3.0088075983191884E-002   7.6440197322813749E-002   0.0000000000000000     
  -1.3877858359001389E-002   9.2069964165928969E-002   0.0000000000000000     
  -1.7415641591536159E-002   8.9604062228791775E-002   0.0000000000000000     
  -2.0897190429877473E-002   8.6204185291538366E-002   0.0000000000000000     
  -2.4282479559316079E-002   8.1924779735666434E-002   0.0000000000000000     
  -2.7531483665142686E-002   7.6820291942673480E-002   0.0000000000000000     
  -1.2830288703023881E-002   9.2394026162535364E-002   0.0000000000000000     
  -1.5999056800311100E-002   8.9930708239591692E-002   0.0000000000000000     
  -1.9116383208996029E-002   8.6531151349044030E-002   0.0000000000000000     
  -2.2146714556632925E-002   8.2246432266517233E-002   0.0000000000000000     
  -2.5054497470776094E-002   7.7127627767636139E-002   0.0000000000000000     
  -3.5414211374835289E-002   7.5412440935074890E-002   0.0000000000000000     
  -3.9566907654765726E-002   6.9632074108021261E-002   0.0000000000000000     
  -4.3437960217615645E-002   6.3140337315697889E-002   0.0000000000000000     
  -4.6971948533849693E-002   5.5964842864352923E-002   0.0000000000000000     
  -5.0113452073932495E-002   4.8133203060234511E-002   0.0000000000000000     
  -3.2717807521047977E-002   7.5975021217224922E-002   0.0000000000000000     
  -3.6492031605224587E-002   7.0157779267454437E-002   0.0000000000000000     
  -4.0003321102244506E-002   6.3622103820945949E-002   0.0000000000000000     
  -4.3201942922036628E-002   5.6396089259806936E-002   0.0000000000000000     
  -4.6038163974529853E-002   4.8507829966144903E-002   0.0000000000000000     
  -3.0088075983191884E-002   7.6440197322813749E-002   0.0000000000000000     
  -3.3501743312101824E-002   7.0590371831388152E-002   0.0000000000000000     
  -3.6671823584997196E-002   6.4013010809445298E-002   0.0000000000000000     
  -3.9550350137220525E-002   5.6738356064072626E-002   0.0000000000000000     
  -4.2089356304114360E-002   4.8796649402357659E-002   0.0000000000000000     
  -2.7531483665142686E-002   7.6820291942673480E-002   0.0000000000000000     
  -3.0602848430378075E-002   7.0941615121352358E-002   0.0000000000000000     
  -3.3449903528963154E-002   6.4325429789677258E-002   0.0000000000000000     
  -3.6024649632568871E-002   5.7004863292917533E-002   0.0000000000000000     
  -3.8279087412866154E-002   4.9013042976342569E-002   0.0000000000000000     
  -2.5054497470776094E-002   7.7127627767636139E-002   0.0000000000000000     
  -2.7802152615033982E-002   7.1223272458877135E-002   0.0000000000000000     
  -3.0343996797231845E-002   6.4571732270123264E-002   0.0000000000000000     
  -3.2632320861249148E-002   5.7208830962109151E-002   0.0000000000000000     
  -3.4619415650965345E-002   4.9170392295569451E-002   0.0000000000000000     
  -5.0113452073932495E-002   4.8133203060234511E-002   0.0000000000000000     
  -5.2802332002731996E-002   3.9692613758315877E-002   0.0000000000000000     
  -5.4959576262729362E-002   3.0768605008470454E-002   0.0000000000000000     
  -5.6501454490809025E-002   2.1506290409296708E-002   0.0000000000000000     
  -5.7344236323855435E-002   1.2050783559393128E-002   0.0000000000000000     
  -4.6038163974529853E-002   4.8507829966144903E-002   0.0000000000000000     
  -4.8455375421107928E-002   4.0003416094063542E-002   0.0000000000000000     
  -5.0369465428973741E-002   3.1000920885651387E-002   0.0000000000000000     
  -5.1689446416785099E-002   2.1636413354993157E-002   0.0000000000000000     
  -5.2324330803199731E-002   1.2045962516173580E-002   0.0000000000000000     
  -4.2089356304114360E-002   4.8796649402357659E-002   0.0000000000000000     
  -4.4234601538192239E-002   4.0234138850784903E-002   0.0000000000000000     
  -4.5906749760651434E-002   3.1161097313427227E-002   0.0000000000000000     
  -4.7020191009860227E-002   2.1703803913754559E-002   0.0000000000000000     
  -4.7489315324186911E-002   1.1988537775236840E-002   0.0000000000000000     
  -3.8279087412866154E-002   4.9013042976342569E-002   0.0000000000000000     
  -4.0161061207848174E-002   4.0397207459174807E-002   0.0000000000000000     
  -4.1601790020797086E-002   3.1261040456448660E-002   0.0000000000000000     
  -4.2528336521317170E-002   2.1722336957151561E-002   0.0000000000000000     
  -4.2867763379012852E-002   1.1898891950270976E-002   0.0000000000000000     
  -3.4619415650965345E-002   4.9170392295569451E-002   0.0000000000000000     
  -3.6255805283939006E-002   4.0505047349928096E-002   0.0000000000000000     
  -3.7484946972445365E-002   3.1312656479366360E-002   0.0000000000000000     
  -3.8248531202438756E-002   2.1705887356754827E-002   0.0000000000000000     
  -3.8488248459873524E-002   1.1797407654964063E-002   0.0000000000000000     
   0.0000000000000000        0.0000000000000000        0.0000000000000000     
   2.8383862546830022E-003   5.0454142103202263E-003   0.0000000000000000     
   5.5543137073343542E-003   1.1248792516239389E-002   0.0000000000000000     
   8.0098323576242737E-003   1.8218715263162870E-002   0.0000000000000000     
   1.0066992205222985E-002   2.5563762796496040E-002   0.0000000000000000     
   0.0000000000000000        0.0000000000000000        0.0000000000000000     
   2.3212788435380645E-003   4.9974568577674447E-003   0.0000000000000000     
   4.5479628293703372E-003   1.1125094960917232E-002   0.0000000000000000     
   6.5786441354044340E-003   1.8020392115579428E-002   0.0000000000000000     
   8.3119149395479673E-003   2.5320826127884097E-002   0.0000000000000000     
   0.0000000000000000        0.0000000000000000        0.0000000000000000     
   1.8948638679823432E-003   5.0024932560801504E-003   0.0000000000000000     
   3.7203061172962643E-003   1.1077430358262497E-002   0.0000000000000000     
   5.3989117272722816E-003   1.7899179721367398E-002   0.0000000000000000     
   6.8532656772409151E-003   2.5142109760215230E-002   0.0000000000000000     
   0.0000000000000000        0.0000000000000000        0.0000000000000000     
   1.5453280695050292E-003   5.0432459799728043E-003   0.0000000000000000     
   3.0413916321667734E-003   1.1083740068834211E-002   0.0000000000000000     
   4.4268020900278772E-003   1.7836349525841712E-002   0.0000000000000000     
   5.6401708451309825E-003   2.5015941610252782E-002   0.0000000000000000     
   0.0000000000000000        0.0000000000000000        0.0000000000000000     
   1.2588581895953154E-003   5.1024376041598684E-003   0.0000000000000000     
   2.4812674350365013E-003   1.1121965453191414E-002   0.0000000000000000     
   3.6184821804712670E-003   1.7813172974317278E-002   0.0000000000000000     
   4.6217568700473201E-003   2.4930649594760095E-002   0.0000000000000000     
   1.0066992205222985E-002   2.5563762796496040E-002   0.0000000000000000     
   1.1613575041705747E-002   3.2948038081555477E-002   0.0000000000000000     
   1.2640289826268001E-002   4.0257734563302602E-002   0.0000000000000000     
   1.3163577310010225E-002   4.7434568306610039E-002   0.0000000000000000     
   1.3199878244032914E-002   5.4420255376350424E-002   0.0000000000000000     
   8.3119149395479673E-003   2.5320826127884097E-002   0.0000000000000000     
   9.6614720418459372E-003   3.2711333096146433E-002   0.0000000000000000     
   1.0601430730892866E-002   4.0066682287422169E-002   0.0000000000000000     
   1.1121010917420652E-002   4.7309101260952093E-002   0.0000000000000000     
   1.1209432512161199E-002   5.4360817575977084E-002   0.0000000000000000     
   6.8532656772409151E-003   2.5142109760215230E-002   0.0000000000000000     
   8.0148397220515064E-003   3.2519253901777477E-002   0.0000000000000000     
   8.8506527186287161E-003   3.9898305621630166E-002   0.0000000000000000     
   9.3366102994160323E-003   4.7185623407500432E-002   0.0000000000000000     
   9.4486180968569328E-003   5.4287565747115386E-002   0.0000000000000000     
   5.6401708451309825E-003   2.5015941610252782E-002   0.0000000000000000     
   6.6256399549444664E-003   3.2367184938458166E-002   0.0000000000000000     
   7.3494740986396285E-003   3.9753953555381603E-002   0.0000000000000000     
   7.7834686108135083E-003   4.7069922863080094E-002   0.0000000000000000     
   7.8994188260631433E-003   5.4208768263610645E-002   0.0000000000000000     
   4.6217568700473201E-003   2.4930649594760095E-002   0.0000000000000000     
   5.4458346131468121E-003   3.2250510646198036E-002   0.0000000000000000     
   6.0594131800896598E-003   3.9634975078131421E-002   0.0000000000000000     
   6.4346790064302231E-003   4.6967787744516147E-002   0.0000000000000000     
   6.5438185277228583E-003   5.4132693499308035E-002   0.0000000000000000     
   1.3199878244032914E-002   5.4420255376350424E-002   0.0000000000000000     
   1.2768626315430536E-002   6.1147923543675632E-002   0.0000000000000000     