 <VTKFile type="UnstructuredGrid"  version="0.1"   >
 <UnstructuredGrid>
 <Piece  NumberOfPoints="          1600 "  NumberOfCells="         1024 ">
 <Points>
 <DataArray  type="Float64" NumberOfComponents="3"  format="ascii" >
  -10.000000000000000        0.0000000000000000        0.0000000000000000     
  -9.6875000000000000        0.0000000000000000        0.0000000000000000     
  -9.3750000000000000        0.0000000000000000        0.0000000000000000     
  -9.0625000000000000        0.0000000000000000        0.0000000000000000     
  -8.7500000000000000        0.0000000000000000        0.0000000000000000     
  -10.000000000000000       0.15625000000000000        0.0000000000000000     
  -9.6875000000000000       0.15625000000000000        0.0000000000000000     
  -9.3750000000000000       0.15625000000000000        0.0000000000000000     
  -9.0625000000000018       0.15625000000000003        0.0000000000000000     
  -8.7500000000000000       0.15625000000000000        0.0000000000000000     
  -10.000000000000000       0.31250000000000006        0.0000000000000000     
  -9.6875000000000000       0.31250000000000000        0.0000000000000000     
  -9.3750000000000000       0.31250000000000000        0.0000000000000000     
  -9.0625000000000000       0.31250000000000006        0.0000000000000000     
  -8.7500000000000000       0.31250000000000000        0.0000000000000000     
  -10.000000000000000       0.46875000000000000        0.0000000000000000     
  -9.6875000000000000       0.46875000000000000        0.0000000000000000     
  -9.3750000000000000       0.46875000000000000        0.0000000000000000     
  -9.0625000000000000       0.46875000000000000        0.0000000000000000     
  -8.7500000000000000       0.46875000000000000        0.0000000000000000     
  -10.000000000000000       0.62500000000000011        0.0000000000000000     
  -9.6875000000000000       0.62500000000000000        0.0000000000000000     
  -9.3750000000000000       0.62499999999999989        0.0000000000000000     
  -9.0625000000000000       0.62500000000000011        0.0000000000000000     
  -8.7500000000000018       0.62500000000000022        0.0000000000000000     
  -8.7500000000000000        0.0000000000000000        0.0000000000000000     
  -8.4375000000000000        0.0000000000000000        0.0000000000000000     
  -8.1250000000000000        0.0000000000000000        0.0000000000000000     
  -7.8124999999999991        0.0000000000000000        0.0000000000000000     
  -7.5000000000000018        0.0000000000000000        0.0000000000000000     
  -8.7500000000000000       0.15625000000000000        0.0000000000000000     
  -8.4375000000000000       0.15625000000000000        0.0000000000000000     
  -8.1250000000000018       0.15625000000000000        0.0000000000000000     
  -7.8125000000000000       0.15625000000000003        0.0000000000000000     
  -7.5000000000000000       0.15625000000000000        0.0000000000000000     
  -8.7500000000000000       0.31250000000000000        0.0000000000000000     
  -8.4375000000000000       0.31250000000000000        0.0000000000000000     
  -8.1250000000000018       0.31250000000000000        0.0000000000000000     
  -7.8125000000000009       0.31250000000000006        0.0000000000000000     
  -7.5000000000000009       0.31250000000000000        0.0000000000000000     
  -8.7500000000000000       0.46875000000000000        0.0000000000000000     
  -8.4375000000000018       0.46875000000000000        0.0000000000000000     
  -8.1250000000000000       0.46875000000000000        0.0000000000000000     
  -7.8125000000000000       0.46875000000000000        0.0000000000000000     
  -7.5000000000000009       0.46875000000000006        0.0000000000000000     
  -8.7500000000000018       0.62500000000000022        0.0000000000000000     
  -8.4375000000000018       0.62500000000000011        0.0000000000000000     
  -8.1250000000000000       0.62499999999999989        0.0000000000000000     
  -7.8125000000000000       0.62500000000000011        0.0000000000000000     
  -7.5000000000000009       0.62500000000000011        0.0000000000000000     
  -7.5000000000000018        0.0000000000000000        0.0000000000000000     
  -7.1875000000000000        0.0000000000000000        0.0000000000000000     
  -6.8750000000000009        0.0000000000000000        0.0000000000000000     
  -6.5625000000000000        0.0000000000000000        0.0000000000000000     
  -6.2500000000000000        0.0000000000000000        0.0000000000000000     
  -7.5000000000000000       0.15625000000000000        0.0000000000000000     
  -7.1875000000000000       0.15625000000000000        0.0000000000000000     
  -6.8750000000000009       0.15625000000000003        0.0000000000000000     
  -6.5625000000000009       0.15625000000000003        0.0000000000000000     
  -6.2500000000000000       0.15625000000000000        0.0000000000000000     
  -7.5000000000000009       0.31250000000000000        0.0000000000000000     
  -7.1875000000000000       0.31250000000000000        0.0000000000000000     
  -6.8750000000000009       0.31250000000000011        0.0000000000000000     
  -6.5624999999999991       0.31249999999999989        0.0000000000000000     
  -6.2500000000000009       0.31250000000000000        0.0000000000000000     
  -7.5000000000000009       0.46875000000000006        0.0000000000000000     
  -7.1875000000000000       0.46875000000000000        0.0000000000000000     
  -6.8749999999999991       0.46874999999999994        0.0000000000000000     
  -6.5625000000000009       0.46875000000000000        0.0000000000000000     
  -6.2500000000000009       0.46875000000000006        0.0000000000000000     
  -7.5000000000000009       0.62500000000000011        0.0000000000000000     
  -7.1875000000000018       0.62500000000000022        0.0000000000000000     
  -6.8750000000000009       0.62500000000000000        0.0000000000000000     
  -6.5625000000000000       0.62500000000000000        0.0000000000000000     
  -6.2500000000000009       0.62500000000000011        0.0000000000000000     
  -6.2500000000000000        0.0000000000000000        0.0000000000000000     
  -5.9375000000000000        0.0000000000000000        0.0000000000000000     
  -5.6250000000000009        0.0000000000000000        0.0000000000000000     
  -5.3125000000000009        0.0000000000000000        0.0000000000000000     
  -5.0000000000000009        0.0000000000000000        0.0000000000000000     
  -6.2500000000000000       0.15625000000000000        0.0000000000000000     
  -5.9375000000000000       0.15625000000000000        0.0000000000000000     
  -5.6250000000000009       0.15625000000000003        0.0000000000000000     
  -5.3125000000000000       0.15625000000000003        0.0000000000000000     
  -5.0000000000000000       0.15625000000000000        0.0000000000000000     
  -6.2500000000000009       0.31250000000000000        0.0000000000000000     
  -5.9375000000000000       0.31250000000000000        0.0000000000000000     
  -5.6250000000000018       0.31250000000000011        0.0000000000000000     
  -5.3124999999999991       0.31249999999999989        0.0000000000000000     
  -5.0000000000000000       0.31250000000000000        0.0000000000000000     
  -6.2500000000000009       0.46875000000000006        0.0000000000000000     
  -5.9375000000000009       0.46875000000000000        0.0000000000000000     
  -5.6249999999999991       0.46874999999999994        0.0000000000000000     
  -5.3125000000000000       0.46875000000000000        0.0000000000000000     
  -5.0000000000000000       0.46875000000000006        0.0000000000000000     
  -6.2500000000000009       0.62500000000000011        0.0000000000000000     
  -5.9375000000000009       0.62500000000000022        0.0000000000000000     
  -5.6250000000000000       0.62500000000000000        0.0000000000000000     
  -5.3125000000000000       0.62500000000000000        0.0000000000000000     
  -5.0000000000000009       0.62500000000000011        0.0000000000000000     
  -5.0000000000000009        0.0000000000000000        0.0000000000000000     
  -4.6875000000000000        0.0000000000000000        0.0000000000000000     
  -4.3750000000000009        0.0000000000000000        0.0000000000000000     
  -4.0625000000000009        0.0000000000000000        0.0000000000000000     
  -3.7500000000000004        0.0000000000000000        0.0000000000000000     
  -5.0000000000000000       0.15625000000000000        0.0000000000000000     
  -4.6875000000000000       0.15625000000000000        0.0000000000000000     
  -4.3750000000000009       0.15625000000000003        0.0000000000000000     
  -4.0625000000000000       0.15625000000000003        0.0000000000000000     
  -3.7500000000000000       0.15625000000000000        0.0000000000000000     
  -5.0000000000000000       0.31250000000000000        0.0000000000000000     
  -4.6875000000000000       0.31250000000000000        0.0000000000000000     
  -4.3750000000000009       0.31250000000000011        0.0000000000000000     
  -4.0624999999999991       0.31249999999999989        0.0000000000000000     
  -3.7500000000000009       0.31250000000000000        0.0000000000000000     
  -5.0000000000000000       0.46875000000000006        0.0000000000000000     
  -4.6875000000000000       0.46875000000000000        0.0000000000000000     
  -4.3749999999999991       0.46874999999999994        0.0000000000000000     
  -4.0625000000000000       0.46875000000000000        0.0000000000000000     
  -3.7500000000000004       0.46875000000000006        0.0000000000000000     
  -5.0000000000000009       0.62500000000000011        0.0000000000000000     
  -4.6875000000000009       0.62500000000000022        0.0000000000000000     
  -4.3750000000000000       0.62500000000000000        0.0000000000000000     
[...]
 <PointData>
 <DataArray  type="Float64" Name="disp" NumberOfComponents="3" format="ascii">
   0.0000000000000000        0.0000000000000000        0.0000000000000000     
   9.0493025206681401E-004   4.9897566611272295E-004   0.0000000000000000     
   1.7020855683818181E-003   9.3705914114401148E-004   0.0000000000000000     
   2.4280118528848911E-003   1.3631030557023634E-003   0.0000000000000000     
   3.1192550095159137E-003   1.8259600403962766E-003   0.0000000000000000     
   0.0000000000000000        0.0000000000000000        0.0000000000000000     
   7.5903439436336316E-004   4.0663325780527642E-004   0.0000000000000000     
   1.4880939718257540E-003   8.1329645880904319E-004   0.0000000000000000     
   2.1905602719733855E-003   1.2443647847570302E-003   0.0000000000000000     
   2.8698148343924701E-003   1.7242134173949665E-003   0.0000000000000000     
   0.0000000000000000        0.0000000000000000        0.0000000000000000     
   6.5437978709318063E-004   3.3355230054946849E-004   0.0000000000000000     
   1.3185064131458236E-003   7.1030026418690822E-004   0.0000000000000000     
   1.9803018091358207E-003   1.1385027751438168E-003   0.0000000000000000     
   2.6276879060410626E-003   1.6264187176516910E-003   0.0000000000000000     
   0.0000000000000000        0.0000000000000000        0.0000000000000000     
   5.7851133862230595E-004   2.7617199360646877E-004   0.0000000000000000     
   1.1810081872428500E-003   6.2503455195608187E-004   0.0000000000000000     
   1.7915659128293975E-003   1.0449736109181436E-003   0.0000000000000000     
   2.3942598823497147E-003   1.5343751063619598E-003   0.0000000000000000     
   0.0000000000000000        0.0000000000000000        0.0000000000000000     
   5.1897395731677852E-004   2.3093153623744732E-004   0.0000000000000000     
   1.0632845890176544E-003   5.5446331679503903E-004   0.0000000000000000     
   1.6186820315113152E-003   9.6323387613543175E-004   0.0000000000000000     
   2.1709164212064505E-003   1.4498817487212821E-003   0.0000000000000000     
   3.1192550095159137E-003   1.8259600403962766E-003   0.0000000000000000     
   3.8054262191170099E-003   2.3661017127892159E-003   0.0000000000000000     
   4.4883977701392908E-003   2.9904756382645187E-003   0.0000000000000000     
   5.1631072279361111E-003   3.6976483691604886E-003   0.0000000000000000     
   5.8244921578608291E-003   4.4861864578154302E-003   0.0000000000000000     
   2.8698148343924701E-003   1.7242134173949665E-003   0.0000000000000000     
   3.5290531103698989E-003   2.2736236431007877E-003   0.0000000000000000     
   4.1707261979952795E-003   2.8990011667812442E-003   0.0000000000000000     
   4.7970991070588895E-003   3.6031577979752896E-003   0.0000000000000000     
   5.4104368473510151E-003   4.3889053462218830E-003   0.0000000000000000     
   2.6276879060410626E-003   1.6264187176516910E-003   0.0000000000000000     
   3.2513480534625367E-003   2.1816748730982237E-003   0.0000000000000000     
   3.8530112754936192E-003   2.8093696114958873E-003   0.0000000000000000     
   4.4371680148507769E-003   3.5139692000133462E-003   0.0000000000000000     
   5.0083087142504855E-003   4.2999399058192686E-003   0.0000000000000000     
   2.3942598823497147E-003   1.5343751063619598E-003   0.0000000000000000     
   2.9764188255048040E-003   2.0926243652719155E-003   0.0000000000000000     
   3.5383849229286106E-003   2.7231042790927217E-003   0.0000000000000000     
   4.0837537179883188E-003   3.4301971303841716E-003   0.0000000000000000     
   4.6161207540511145E-003   4.2182852017060594E-003   0.0000000000000000     
   2.1709164212064505E-003   1.4498817487212821E-003   0.0000000000000000     
   2.7083732036065795E-003   2.0088410821122510E-003   0.0000000000000000     
   3.2299790605945546E-003   2.6417284762560219E-003   0.0000000000000000     
   3.7372959831480606E-003   3.3519561441972827E-003   0.0000000000000000     
   4.2318859622447807E-003   4.1429362989807220E-003   0.0000000000000000     
   5.8244921578608291E-003   4.4861864578154302E-003   0.0000000000000000     
   6.4684788859570280E-003   5.3546145694786003E-003   0.0000000000000000     
   7.0949487810292389E-003   6.3012898210430658E-003   0.0000000000000000     
   7.7047719725722129E-003   7.3245274423128469E-003   0.0000000000000000     
   8.2988185900807112E-003   8.4226426630919626E-003   0.0000000000000000     
   5.4104368473510151E-003   4.3889053462218830E-003   0.0000000000000000     
   6.0123676542615349E-003   5.2580371202172642E-003   0.0000000000000000     
   6.6019726655787130E-003   6.2082724252868439E-003   0.0000000000000000     
   7.1776962446904059E-003   7.2363120659133199E-003   0.0000000000000000     
   7.7379827549844743E-003   8.3388568465793868E-003   0.0000000000000000     
   5.0083087142504855E-003   4.2999399058192686E-003   0.0000000000000000     
   5.5698421029451760E-003   5.1703754653833096E-003   0.0000000000000000     
   6.1208500563311521E-003   6.1228794923790918E-003   0.0000000000000000     
   6.6593327363406746E-003   7.1536830697812182E-003   0.0000000000000000     
   7.1832903049060138E-003   8.2590172805643031E-003   0.0000000000000000     
   4.6161207540511145E-003   4.2182852017060594E-003   0.0000000000000000     
   5.1382657248881872E-003   5.0904310530202144E-003   0.0000000000000000     
   5.6497049258867746E-003   6.0444183538966223E-003   0.0000000000000000     
   6.1491388028381312E-003   7.0767110513073094E-003   0.0000000000000000     
   6.6352678015335021E-003   8.1837730922242995E-003   0.0000000000000000     
   4.2318859622447807E-003   4.1429362989807220E-003   0.0000000000000000     
   4.7150020129708026E-003   5.0170053311714485E-003   0.0000000000000000     
   5.1866612468458029E-003   5.9721963414162528E-003   0.0000000000000000     
   5.6465717994978754E-003   7.0054666078823505E-003   0.0000000000000000     
   6.0944418065551021E-003   8.1137734087369569E-003   0.0000000000000000     
   8.2988185900807112E-003   8.4226426630919626E-003   0.0000000000000000     
   8.8777567820124952E-003   9.5939111605693340E-003   0.0000000000000000     
   9.4414467726773553E-003   1.0836450401473489E-002   0.0000000000000000     
   9.9895468053480853E-003   1.2148338299917847E-002   0.0000000000000000     
   1.0521715123297479E-002   1.3527652770015835E-002   0.0000000000000000     
   7.7379827549844743E-003   8.3388568465793868E-003   0.0000000000000000     
   8.2816683231857254E-003   9.5129600035054520E-003   0.0000000000000000     
   8.8091561293667537E-003   1.0757084499862771E-002   0.0000000000000000     
   9.3212411169370894E-003   1.2070045730560306E-002   0.0000000000000000     
   9.8187182293062794E-003   1.3450659090507019E-002   0.0000000000000000     
   7.1832903049060138E-003   8.2590172805643031E-003   0.0000000000000000     
   7.6912162847940536E-003   9.4355672981880096E-003   0.0000000000000000     
   8.1835776421101628E-003   1.0681834658052222E-002   0.0000000000000000     
   8.6613347037943211E-003   1.1996774986041868E-002   0.0000000000000000     
   9.1254477967865292E-003   1.3379343908041900E-002   0.0000000000000000     
   6.6352678015335021E-003   8.1837730922242995E-003   0.0000000000000000     
   7.1071053910895642E-003   9.3624488061343804E-003   0.0000000000000000     
   7.5649171339247081E-003   1.0611104052583389E-002   0.0000000000000000     
   8.0092816157827599E-003   1.1928485073631919E-002   0.0000000000000000     
   8.4407774224075256E-003   1.3313338111340571E-002   0.0000000000000000     
   6.0944418065551021E-003   8.1137734087369569E-003   0.0000000000000000     
   6.5300403663243389E-003   9.2943202888619431E-003   0.0000000000000000     
   6.9533804278275211E-003   1.0545295859997840E-002   0.0000000000000000     
   7.3645359027653609E-003   1.1865135000599838E-002   0.0000000000000000     
   7.7635807028385686E-003   1.3252272589123129E-002   0.0000000000000000     
   1.0521715123297479E-002   1.3527652770015835E-002   0.0000000000000000     
   1.1037683889402248E-002   1.4972427576065015E-002   0.0000000000000000     
   1.1537480944954805E-002   1.6480519883099554E-002   0.0000000000000000     
   1.2021208050851460E-002   1.8049742706337735E-002   0.0000000000000000     
   1.2488966967988542E-002   1.9677909060997860E-002   0.0000000000000000     
   9.8187182293062794E-003   1.3450659090507019E-002   0.0000000000000000     
   1.0302178018294717E-002   1.4897512480597725E-002   0.0000000000000000     
   1.0771393469366237E-002   1.6408283825670649E-002   0.0000000000000000     
   1.1225933176395538E-002   1.7980423556549850E-002   0.0000000000000000     
   1.1665365733257309E-002   1.9611382104059411E-002   0.0000000000000000     
   9.1254477967865292E-003   1.3379343908041900E-002   0.0000000000000000     
   9.5766405668225758E-003   1.4828240670101031E-002   0.0000000000000000     
   1.0014689934821514E-002   1.6341138998923161E-002   0.0000000000000000     
   1.0439136140498193E-002   1.7915456241375943E-002   0.0000000000000000     
   1.0849519423567485E-002   1.9548609744327074E-002   0.0000000000000000     
   8.4407774224075256E-003   1.3313338111340571E-002   0.0000000000000000     
   8.8598511721852541E-003   1.4764213223504895E-002   0.0000000000000000     
   9.2664216140718788E-003   1.6278875730860294E-002   0.0000000000000000     
   9.6602755296657534E-003   1.7854894769877127E-002   0.0000000000000000     
   1.0041199700565230E-002   1.9489839477025764E-002   0.0000000000000000     
   7.7635807028385686E-003   1.3252272589123129E-002   0.0000000000000000     
   8.1505894715821897E-003   1.4705031219739271E-002   0.0000000000000000     
   8.5256397798685966E-003   1.6221284349485270E-002   0.0000000000000000     
   8.8888099304045218E-003   1.7798793151114527E-002   0.0000000000000000     
   9.2401782258966832E-003   1.9435318797380419E-002   0.0000000000000000     
   1.2488966967988542E-002   1.9677909060997860E-002   0.0000000000000000     
   1.2940862608446378E-002   2.1362890011232805E-002   0.0000000000000000     
   1.3377012489041341E-002   2.3102788816933853E-002   0.0000000000000000     
   1.3797537277773799E-002   2.4895766786926829E-002   0.0000000000000000     
   1.4202557642644132E-002   2.6739985230037604E-002   0.0000000000000000     
   1.1665365733257309E-002   1.9611382104059411E-002   0.0000000000000000     
   1.2089392048676822E-002   2.1298758469050209E-002   0.0000000000000000     
   1.2498242290781668E-002   2.3040745932480348E-002   0.0000000000000000     
   1.2892278942549993E-002   2.4835686345334729E-002   0.0000000000000000     
   1.3271864486959965E-002   2.6681921558598273E-002   0.0000000000000000     
   1.0849519423567485E-002   1.9548609744327074E-002   0.0000000000000000     
   1.1245512767523733E-002   2.1238169851457520E-002   0.0000000000000000     
   1.1627320130979215E-002   2.2982318893701538E-002   0.0000000000000000     
   1.1995278216325716E-002   2.4779392198806663E-002   0.0000000000000000     
   1.2349723725955017E-002   2.6627725094520476E-002   0.0000000000000000     
   1.0041199700565230E-002   1.9489839477025764E-002   0.0000000000000000     
   1.0409045057831710E-002   2.1181388911728126E-002   0.0000000000000000     
   1.0763919130378805E-002   2.2927661825212456E-002   0.0000000000000000     
   1.1105993596583172E-002   2.4726886891658608E-002   0.0000000000000000     
   1.1435440134821463E-002   2.6577292785246384E-002   0.0000000000000000     
   9.2401782258966832E-003   1.9435318797380419E-002   0.0000000000000000     
   9.5798092124453789E-003   2.1128680403135400E-002   0.0000000000000000     
   9.9077124097252545E-003   2.2876928851628169E-002   0.0000000000000000     
   1.0223883580804546E-002   2.4678172968206517E-002   0.0000000000000000     
   1.0528318488751472E-002   2.6530521578218197E-002   0.0000000000000000     
   1.4202557642644132E-002   2.6739985230037604E-002   0.0000000000000000     
   1.4592168830340119E-002   2.8633572156259338E-002   0.0000000000000000     
   1.4966364402299195E-002   3.0574522380254567E-002   0.0000000000000000     
   1.5325112498646203E-002   3.2560797417853102E-002   0.0000000000000000     
   1.5668381259505967E-002   3.4590358784884791E-002   0.0000000000000000     
   1.3271864486959965E-002   2.6681921558598273E-002   0.0000000000000000     
   1.3637274536037797E-002   2.8577713049223390E-002   0.0000000000000000     
   1.3988437218001939E-002   3.0521000798032459E-002   0.0000000000000000     
   1.4325193790118890E-002   3.2509644411815350E-002   0.0000000000000000     
   1.4647385509655168E-002   3.4541503497361951E-002   0.0000000000000000     
   1.2349723725955017E-002   2.6627725094520476E-002   0.0000000000000000     
   1.2690918295487770E-002   2.8525575256704006E-002   0.0000000000000000     
   1.3018823293460192E-002   3.0470889753672330E-002   0.0000000000000000     
   1.3333325021637353E-002   3.2461538001853966E-002   0.0000000000000000     
   1.3634309781784367E-002   3.4495389417677484E-002   0.0000000000000000     
   1.1435440134821463E-002   2.6577292785246384E-002   0.0000000000000000     
   1.1752404594746052E-002   2.8477059026617353E-002   0.0000000000000000     
   1.2056929511112192E-002   3.0424168522260001E-002   0.0000000000000000     
   1.2349031589950850E-002   3.2416555025124569E-002   0.0000000000000000     
   1.2628727537292989E-002   3.4452152288161245E-002   0.0000000000000000     
   1.0528318488751472E-002   2.6530521578218197E-002   0.0000000000000000     
   1.0821037919868649E-002   2.8432064606879588E-002   0.0000000000000000     
   1.1102162753396197E-002   3.0380816378881351E-002   0.0000000000000000     
   1.1371838891808629E-002   3.2374772318782781E-002   0.0000000000000000     
   1.1630212237580467E-002   3.4411927851143116E-002   0.0000000000000000     
   1.5668381259505967E-002   3.4590358784884791E-002   0.0000000000000000     
   1.5996113273744762E-002   3.6661095341879051E-002   0.0000000000000000     
   1.6308148925194547E-002   3.8770605328163781E-002   0.0000000000000000     
   1.6604303046428695E-002   4.0916414327766409E-002   0.0000000000000000     
   1.6884390470020594E-002   4.3096047924714435E-002   0.0000000000000000     
   1.4647385509655168E-002   3.4541503497361951E-002   0.0000000000000000     
   1.4954919346438906E-002   3.6614393312925167E-002   0.0000000000000000     
   1.5247965120544790E-002   3.8725951722609994E-002   0.0000000000000000     
   1.5526758364609145E-002   4.0873772241984463E-002   0.0000000000000000     
   1.5791534611268296E-002   4.3055448386616617E-002   0.0000000000000000     
   1.3634309781784367E-002   3.4495389417677484E-002   0.0000000000000000     
   1.3921741597912948E-002   3.6570254507565375E-002   0.0000000000000000     
   1.4195895383021351E-002   3.8683708137915912E-002   0.0000000000000000     
   1.4457123772354480E-002   4.0833266265121272E-002   0.0000000000000000     
   1.4705779401157231E-002   4.3016444845573681E-002   0.0000000000000000     
   1.2628727537292989E-002   3.4452152288161245E-002   0.0000000000000000     
   1.2896080033184090E-002   3.6528801434369131E-002   0.0000000000000000     
   1.3151335653727666E-002   3.8643973066942734E-002   0.0000000000000000     
   1.3394786949041735E-002   4.0795045159125347E-002   0.0000000000000000     
   1.3626726469244317E-002   4.2979395684160350E-002   0.0000000000000000     
   1.1630212237580467E-002   3.4411927851143116E-002   0.0000000000000000     
   1.1877434657269550E-002   3.6490156601905896E-002   0.0000000000000000     
   1.2113681873767166E-002   3.8606845002551668E-002   0.0000000000000000     
   1.2339135574047939E-002   4.0759257685945238E-002   0.0000000000000000     
   1.2553977445086489E-002   4.2944659284951399E-002   0.0000000000000000     
   0.0000000000000000        0.0000000000000000        0.0000000000000000     
   5.1897395731677852E-004   2.3093153623744732E-004   0.0000000000000000     
   1.0632845890176544E-003   5.5446331679503903E-004   0.0000000000000000     
   1.6186820315113152E-003   9.6323387613543175E-004   0.0000000000000000     
   2.1709164212064505E-003   1.4498817487212821E-003   0.0000000000000000     
   0.0000000000000000        0.0000000000000000        0.0000000000000000     
   4.6530601854600937E-004   1.9464163148074609E-004   0.0000000000000000     
   9.5490218165978345E-004   4.9579318107058161E-004   0.0000000000000000     
   1.4566838075623807E-003   8.9263344530433864E-004   0.0000000000000000     
   1.9585462144748583E-003   1.3743412207168479E-003   0.0000000000000000     
   0.0000000000000000        0.0000000000000000        0.0000000000000000     
   4.1501976569289410E-004   1.6559899748339618E-004   0.0000000000000000     
   8.5295260151368264E-004   4.4720127790281945E-004   0.0000000000000000     
   1.3034216590578304E-003   8.3209535474647615E-004   0.0000000000000000     
   1.7560500899208027E-003   1.3075697415025735E-003   0.0000000000000000     
   0.0000000000000000        0.0000000000000000        0.0000000000000000     
   3.6762090914370008E-004   1.4247185616960087E-004   0.0000000000000000     
   7.5640875321252141E-004   4.0710736810018903E-004   0.0000000000000000     
   1.1574501979965098E-003   7.8043593123669659E-004   0.0000000000000000     
   1.5618319092857117E-003   1.2489869410240563E-003   0.0000000000000000     
   0.0000000000000000        0.0000000000000000        0.0000000000000000     
   3.2261515928469454E-004   1.2392842946356335E-004   0.0000000000000000     
   6.6424354138946908E-004   3.7393121247112688E-004   0.0000000000000000     
   1.0173240363772630E-003   7.3647150154985020E-004   0.0000000000000000     
   1.3742955343110158E-003   1.1980124492268927E-003   0.0000000000000000     
   2.1709164212064505E-003   1.4498817487212821E-003   0.0000000000000000     
   2.7083732036065795E-003   2.0088410821122510E-003   0.0000000000000000     
   3.2299790605945546E-003   2.6417284762560219E-003   0.0000000000000000     
   3.7372959831480606E-003   3.3519561441972827E-003   0.0000000000000000     
   4.2318859622447807E-003   4.1429362989807220E-003   0.0000000000000000     
   1.9585462144748583E-003   1.3743412207168479E-003   0.0000000000000000     
   2.4504036606173480E-003   1.9322776650195275E-003   0.0000000000000000     
   2.9302461642062702E-003   2.5665333806301396E-003   0.0000000000000000     
   3.3980826834571179E-003   3.2793813311430336E-003   0.0000000000000000     
   3.8539221765853853E-003   4.0730944801525585E-003   0.0000000000000000     
   1.7560500899208027E-003   1.3075697415025735E-003   0.0000000000000000     
   2.2020414523450113E-003   1.8632214710336717E-003   0.0000000000000000     
   2.6389209311606624E-003   2.4978816536997523E-003   0.0000000000000000     
   3.0657941178449072E-003   3.2126899192351488E-003   0.0000000000000000     
   3.4817666038748996E-003   4.0087858973741966E-003   0.0000000000000000     
   1.5618319092857117E-003   1.2489869410240563E-003   0.0000000000000000     
   1.9619025303370756E-003   1.8015435361045196E-003   0.0000000000000000     
   2.3550586142751582E-003   2.4359038279096160E-003   0.0000000000000000     
   2.7399586916914192E-003   3.1521196710681950E-003   0.0000000000000000     
   3.1152612931773186E-003   3.9502429202091082E-003   0.0000000000000000     
   1.3742955343110158E-003   1.1980124492268927E-003   0.0000000000000000     
   1.7286028461410447E-003   1.7471148961819036E-003   0.0000000000000000     
   2.0777144663671836E-003   2.3807304357044866E-003   0.0000000000000000     
   2.4201048103766440E-003   3.0979083492367388E-003   0.0000000000000000     
   2.7542482935566364E-003   3.8976979182207524E-003   0.0000000000000000     
   4.2318859622447807E-003   4.1429362989807220E-003   0.0000000000000000     
   4.7150020129708026E-003   5.0170053311714485E-003   0.0000000000000000     