 <VTKFile type="UnstructuredGrid"  version="0.1"   >
 <UnstructuredGrid>
 <Piece  NumberOfPoints="          1600 "  NumberOfCells="         1024 ">
 <Points>
 <DataArray  type="Float64" NumberOfComponents="3"  format="ascii" >
  -10.000000000000000        0.0000000000000000        0.0000000000000000     
  -9.6875000000000000        0.0000000000000000        0.0000000000000000     
  -9.3750000000000000        0.0000000000000000        0.0000000000000000     
  -9.0625000000000000        0.0000000000000000        0.0000000000000000     
  -8.7500000000000000        0.0000000000000000        0.0000000000000000     
  -10.000000000000000       0.15625000000000000        0.0000000000000000     
  -9.6875000000000000       0.15625000000000000        0.0000000000000000     
  -9.3750000000000000       0.15625000000000000        0.0000000000000000     
  -9.0625000000000018       0.15625000000000003        0.0000000000000000     
  -8.7500000000000000       0.15625000000000000        0.0000000000000000     
  -10.000000000000000       0.31250000000000006        0.0000000000000000     
  -9.6875000000000000       0.31250000000000000        0.0000000000000000     
  -9.3750000000000000       0.31250000000000000        0.0000000000000000     
  -9.0625000000000000       0.31250000000000006        0.0000000000000000     
  -8.7500000000000000       0.31250000000000000        0.0000000000000000     
  -10.000000000000000       0.46875000000000000        0.0000000000000000     
  -9.6875000000000000       0.46875000000000000        0.0000000000000000     
  -9.3750000000000000       0.46875000000000000        0.0000000000000000     
  -9.0625000000000000       0.46875000000000000        0.0000000000000000     
  -8.7500000000000000       0.46875000000000000        0.0000000000000000     
  -10.000000000000000       0.62500000000000011        0.0000000000000000     
  -9.6875000000000000       0.62500000000000000        0.0000000000000000     
  -9.3750000000000000       0.62499999999999989        0.0000000000000000     
  -9.0625000000000000       0.62500000000000011        0.0000000000000000     
  -8.7500000000000018       0.62500000000000022        0.0000000000000000     
  -8.7500000000000000        0.0000000000000000        0.0000000000000000     
  -8.4375000000000000        0.0000000000000000        0.0000000000000000     
  -8.1250000000000000        0.0000000000000000        0.0000000000000000     
  -7.8124999999999991        0.0000000000000000        0.0000000000000000     
  -7.5000000000000018        0.0000000000000000        0.0000000000000000     
  -8.7500000000000000       0.15625000000000000        0.0000000000000000     
  -8.4375000000000000       0.15625000000000000        0.0000000000000000     
  -8.1250000000000018       0.15625000000000000        0.0000000000000000     
  -7.8125000000000000       0.15625000000000003        0.0000000000000000     
  -7.5000000000000000       0.15625000000000000        0.0000000000000000     
  -8.7500000000000000       0.31250000000000000        0.0000000000000000     
  -8.4375000000000000       0.31250000000000000        0.0000000000000000     
  -8.1250000000000018       0.31250000000000000        0.0000000000000000     
  -7.8125000000000009       0.31250000000000006        0.0000000000000000     
  -7.5000000000000009       0.31250000000000000        0.0000000000000000     
  -8.7500000000000000       0.46875000000000000        0.0000000000000000     
  -8.4375000000000018       0.46875000000000000        0.0000000000000000     
  -8.1250000000000000       0.46875000000000000        0.0000000000000000     
  -7.8125000000000000       0.46875000000000000        0.0000000000000000     
  -7.5000000000000009       0.46875000000000006        0.0000000000000000     
  -8.7500000000000018       0.62500000000000022        0.0000000000000000     
  -8.4375000000000018       0.62500000000000011        0.0000000000000000     
  -8.1250000000000000       0.62499999999999989        0.0000000000000000     
  -7.8125000000000000       0.62500000000000011        0.0000000000000000     
  -7.5000000000000009       0.62500000000000011        0.0000000000000000     
  -7.5000000000000018        0.0000000000000000        0.0000000000000000     
  -7.1875000000000000        0.0000000000000000        0.0000000000000000     
  -6.8750000000000009        0.0000000000000000        0.0000000000000000     
  -6.5625000000000000        0.0000000000000000        0.0000000000000000     
  -6.2500000000000000        0.0000000000000000        0.0000000000000000     
  -7.5000000000000000       0.15625000000000000        0.0000000000000000     
  -7.1875000000000000       0.15625000000000000        0.0000000000000000     
  -6.8750000000000009       0.15625000000000003        0.0000000000000000     
  -6.5625000000000009       0.15625000000000003        0.0000000000000000     
  -6.2500000000000000       0.15625000000000000        0.0000000000000000     
  -7.5000000000000009       0.31250000000000000        0.0000000000000000     
  -7.1875000000000000       0.31250000000000000        0.0000000000000000     
  -6.8750000000000009       0.31250000000000011        0.0000000000000000     
  -6.5624999999999991       0.31249999999999989        0.0000000000000000     
  -6.2500000000000009       0.31250000000000000        0.0000000000000000     
  -7.5000000000000009       0.46875000000000006        0.0000000000000000     
  -7.1875000000000000       0.46875000000000000        0.0000000000000000     
  -6.8749999999999991       0.46874999999999994        0.0000000000000000     
  -6.5625000000000009       0.46875000000000000        0.0000000000000000     
  -6.2500000000000009       0.46875000000000006        0.0000000000000000     
  -7.5000000000000009       0.62500000000000011        0.0000000000000000     
  -7.1875000000000018       0.62500000000000022        0.0000000000000000     
  -6.8750000000000009       0.62500000000000000        0.0000000000000000     
  -6.5625000000000000       0.62500000000000000        0.0000000000000000     
  -6.2500000000000009       0.62500000000000011        0.0000000000000000     
  -6.2500000000000000        0.0000000000000000        0.0000000000000000     
  -5.9375000000000000        0.0000000000000000        0.0000000000000000     
  -5.6250000000000009        0.0000000000000000        0.0000000000000000     
  -5.3125000000000009        0.0000000000000000        0.0000000000000000     
  -5.0000000000000009        0.0000000000000000        0.0000000000000000     
  -6.2500000000000000       0.15625000000000000        0.0000000000000000     
  -5.9375000000000000       0.15625000000000000        0.0000000000000000     
  -5.6250000000000009       0.15625000000000003        0.0000000000000000     
  -5.3125000000000000       0.15625000000000003        0.0000000000000000     
  -5.0000000000000000       0.15625000000000000        0.0000000000000000     
  -6.2500000000000009       0.31250000000000000        0.0000000000000000     
  -5.9375000000000000       0.31250000000000000        0.0000000000000000     
  -5.6250000000000018       0.31250000000000011        0.0000000000000000     
  -5.3124999999999991       0.31249999999999989        0.0000000000000000     
  -5.0000000000000000       0.31250000000000000        0.0000000000000000     
  -6.2500000000000009       0.46875000000000006        0.0000000000000000     
  -5.9375000000000009       0.46875000000000000        0.0000000000000000     
  -5.6249999999999991       0.46874999999999994        0.0000000000000000     
  -5.3125000000000000       0.46875000000000000        0.0000000000000000     
  -5.0000000000000000       0.46875000000000006        0.0000000000000000     
  -6.2500000000000009       0.62500000000000011        0.0000000000000000     
  -5.9375000000000009       0.62500000000000022        0.0000000000000000     
  -5.6250000000000000       0.62500000000000000        0.0000000000000000     
  -5.3125000000000000       0.62500000000000000        0.0000000000000000     
  -5.0000000000000009       0.62500000000000011        0.0000000000000000     
  -5.0000000000000009        0.0000000000000000        0.0000000000000000     
  -4.6875000000000000        0.0000000000000000        0.0000000000000000     
  -4.3750000000000009        0.0000000000000000        0.0000000000000000     
  -4.0625000000000009        0.0000000000000000        0.0000000000000000     
  -3.7500000000000004        0.0000000000000000        0.0000000000000000     
  -5.0000000000000000       0.15625000000000000        0.0000000000000000     
  -4.6875000000000000       0.15625000000000000        0.0000000000000000     
  -4.3750000000000009       0.15625000000000003        0.0000000000000000     
  -4.0625000000000000       0.15625000000000003        0.0000000000000000     
  -3.7500000000000000       0.15625000000000000        0.0000000000000000     
  -5.0000000000000000       0.31250000000000000        0.0000000000000000     
  -4.6875000000000000       0.31250000000000000        0.0000000000000000     
  -4.3750000000000009       0.31250000000000011        0.0000000000000000     
  -4.0624999999999991       0.31249999999999989        0.0000000000000000     
  -3.7500000000000009       0.31250000000000000        0.0000000000000000     
  -5.0000000000000000       0.46875000000000006        0.0000000000000000     
  -4.6875000000000000       0.46875000000000000        0.0000000000000000     
  -4.3749999999999991       0.46874999999999994        0.0000000000000000     
  -4.0625000000000000       0.46875000000000000        0.0000000000000000     
  -3.7500000000000004       0.46875000000000006        0.0000000000000000     
  -5.0000000000000009       0.62500000000000011        0.0000000000000000     
  -4.6875000000000009       0.62500000000000022        0.0000000000000000     
  -4.3750000000000000       0.62500000000000000        0.0000000000000000     
[...]
 <PointData>
 <DataArray  type="Float64" Name="disp" NumberOfComponents="3" format="ascii">
   0.0000000000000000        0.0000000000000000        0.0000000000000000     
   3.7492610370534214E-003   2.5891092902521513E-003   0.0000000000000000     
   6.7153622375864443E-003   5.0972964665849411E-003   0.0000000000000000     
   9.1018347771264531E-003   7.6201943446985798E-003   0.0000000000000000     
   1.1112209831200839E-002   1.0253435740293283E-002   0.0000000000000000     
   0.0000000000000000        0.0000000000000000        0.0000000000000000     
   2.9224633491709102E-003   2.2495714272355730E-003   0.0000000000000000     
   5.5127636322558496E-003   4.6634194174816658E-003   0.0000000000000000     
   7.7982363967889108E-003   7.2376682511756697E-003   0.0000000000000000     
   9.8062171903041777E-003   9.9684422087549726E-003   0.0000000000000000     
   0.0000000000000000        0.0000000000000000        0.0000000000000000     
   2.3542531403834581E-003   2.0052054873745768E-003   0.0000000000000000     
   4.6121310565922528E-003   4.3303788396067567E-003   0.0000000000000000     
   6.7204402352255841E-003   6.9139693987261275E-003   0.0000000000000000     
   8.6259871628826517E-003   9.6944265067622666E-003   0.0000000000000000     
   0.0000000000000000        0.0000000000000000        0.0000000000000000     
   1.9696124961857088E-003   1.8354712099679972E-003   0.0000000000000000     
   3.9345988080932903E-003   4.0800212337901917E-003   0.0000000000000000     
   5.8235674087504571E-003   6.6445952370166386E-003   0.0000000000000000     
   7.5651267711849286E-003   9.4401383851974024E-003   0.0000000000000000     
   0.0000000000000000        0.0000000000000000        0.0000000000000000     
   1.6935235020723064E-003   1.7198283343146685E-003   0.0000000000000000     
   3.4013011842565972E-003   3.8941931008619436E-003   0.0000000000000000     
   5.0627390336775097E-003   6.4250432157138982E-003   0.0000000000000000     
   6.6172430374596804E-003   9.2143275949426017E-003   0.0000000000000000     
   1.1112209831200839E-002   1.0253435740293283E-002   0.0000000000000000     
   1.2914202860914794E-002   1.3073383367464730E-002   0.0000000000000000     
   1.4532266469684784E-002   1.6079319533890499E-002   0.0000000000000000     
   1.5955037546505086E-002   1.9251256445643634E-002   0.0000000000000000     
   1.7171152980369971E-002   2.2569206308797170E-002   0.0000000000000000     
   9.8062171903041777E-003   9.9684422087549726E-003   0.0000000000000000     
   1.1562554448271657E-002   1.2852127926735884E-002   0.0000000000000000     
   1.3087148157905024E-002   1.5886161465950389E-002   0.0000000000000000     
   1.4398411194353858E-002   1.9068241243309376E-002   0.0000000000000000     
   1.5514756432767748E-002   2.2396065675723744E-002   0.0000000000000000     
   8.6259871628826517E-003   9.6944265067622666E-003   0.0000000000000000     
   1.0288489918623989E-002   1.2620941069253008E-002   0.0000000000000000     
   1.1719312951355502E-002   1.5685670245769126E-002   0.0000000000000000     
   1.2942732302444426E-002   1.8891512759389637E-002   0.0000000000000000     
   1.3983024013257997E-002   2.2241367333193558E-002   0.0000000000000000     
   7.5651267711849286E-003   9.4401383851974024E-003   0.0000000000000000     
   9.1024573969947301E-003   1.2392446285218128E-002   0.0000000000000000     
   1.0437027902059137E-002   1.5486716309306862E-002   0.0000000000000000     
   1.1584878930827748E-002   1.8722996271027231E-002   0.0000000000000000     
   1.2562051127750161E-002   2.2101333983942886E-002   0.0000000000000000     
   6.6172430374596804E-003   9.2143275949426017E-003   0.0000000000000000     
   8.0149050084068058E-003   1.2179267064833273E-002   0.0000000000000000     
   9.2485600620388388E-003   1.5298170092523738E-002   0.0000000000000000     
   1.0321729139554795E-002   1.8564617055364989E-002   0.0000000000000000     
   1.1237933182153688E-002   2.1972188330708006E-002   0.0000000000000000     
   1.7171152980369971E-002   2.2569206308797170E-002   0.0000000000000000     
   1.8172081931970403E-002   2.6011739264766718E-002   0.0000000000000000     
   1.8960622648784151E-002   2.9551657196338173E-002   0.0000000000000000     
   1.9542405649985665E-002   3.3160319921639973E-002   0.0000000000000000     
   1.9923061454749397E-002   3.6809087258800575E-002   0.0000000000000000     
   1.5514756432767748E-002   2.2396065675723744E-002   0.0000000000000000     
   1.6450752179625418E-002   2.5861876367825328E-002   0.0000000000000000     
   1.7205588466722151E-002   2.9436087675129702E-002   0.0000000000000000     
   1.7774610757182376E-002   3.3083657140873357E-002   0.0000000000000000     
   1.8153164514130505E-002   3.6769542308292796E-002   0.0000000000000000     
   1.3983024013257997E-002   2.2241367333193558E-002   0.0000000000000000     
   1.4859401411507472E-002   2.5731615827577960E-002   0.0000000000000000     
   1.5570826970280211E-002   2.9332572652212112E-002   0.0000000000000000     
   1.6111200449007573E-002   3.3008035354083323E-002   0.0000000000000000     
   1.6474421607120950E-002   3.6721801480178964E-002   0.0000000000000000     
   1.2562051127750161E-002   2.2101333983942886E-002   0.0000000000000000     
   1.3381475874018856E-002   2.5616054917072542E-002   0.0000000000000000     
   1.4043647497797913E-002   2.9238595161255331E-002   0.0000000000000000     
   1.4545951063994327E-002   3.2934668462785512E-002   0.0000000000000000     
   1.4885771637515061E-002   3.6669988567957286E-002   0.0000000000000000     
   1.1237933182153688E-002   2.1972188330708006E-002   0.0000000000000000     
   1.2000421813561849E-002   2.5510290909357029E-002   0.0000000000000000     
   1.2611359387614875E-002   2.9151638235929325E-002   0.0000000000000000     
   1.3072638940675679E-002   3.2864770368495458E-002   0.0000000000000000     
   1.3386153509107187E-002   3.6618227365125953E-002   0.0000000000000000     
   1.9923061454749397E-002   3.6809087258800575E-002   0.0000000000000000     
   2.0107674399304512E-002   4.0470181420985671E-002   0.0000000000000000     
   2.0099144088099034E-002   4.4119274201509934E-002   0.0000000000000000     
   1.9899823942635675E-002   4.7732899788725275E-002   0.0000000000000000     
   1.9512067384417152E-002   5.1287592370983591E-002   0.0000000000000000     
   1.8153164514130505E-002   3.6769542308292796E-002   0.0000000000000000     
   1.8338538749204519E-002   4.0461093526530545E-002   0.0000000000000000     
   1.8335796668096579E-002   4.4135232368353254E-002   0.0000000000000000     
   1.8151945025012391E-002   4.7771273212433553E-002   0.0000000000000000     
   1.7793990574157672E-002   5.1348530437444091E-002   0.0000000000000000     
   1.6474421607120950E-002   3.6721801480178964E-002   0.0000000000000000     
   1.6656604032606891E-002   4.0440272011184560E-002   0.0000000000000000     
   1.6662716627672738E-002   4.4140261662578742E-002   0.0000000000000000     
   1.6499942123081014E-002   4.7801188583538268E-002   0.0000000000000000     
   1.6175463249594270E-002   5.1402470923240073E-002   0.0000000000000000     
   1.4885771637515061E-002   3.6669988567957286E-002   0.0000000000000000     
   1.5061747873842669E-002   4.0412319607830760E-002   0.0000000000000000     
   1.5077532790761995E-002   4.4137627252529552E-002   0.0000000000000000     
   1.4938032996633457E-002   4.7823927556943133E-002   0.0000000000000000     
   1.4648155099817465E-002   5.1449236575960962E-002   0.0000000000000000     
   1.3386153509107187E-002   3.6618227365125953E-002   0.0000000000000000     
   1.3553847897242920E-002   4.0381839049352199E-002   0.0000000000000000     
   1.3577873981298857E-002   4.4130594306548913E-002   0.0000000000000000     
   1.3460435405461605E-002   4.7840771787551729E-002   0.0000000000000000     
   1.3203735813917759E-002   5.1488650143196216E-002   0.0000000000000000     
   1.9512067384417152E-002   5.1287592370983591E-002   0.0000000000000000     
   1.8938858160229475E-002   5.4759337394252039E-002   0.0000000000000000     
   1.8185701317991815E-002   5.8121925334958788E-002   0.0000000000000000     
   1.7258732230906619E-002   6.1348597927147183E-002   0.0000000000000000     
   1.6164086272176342E-002   6.4412596904860620E-002   0.0000000000000000     
   1.7793990574157672E-002   5.1348530437444091E-002   0.0000000000000000     
   1.7268298488117204E-002   5.4845084286864479E-002   0.0000000000000000     
   1.6578667612992141E-002   5.8234078463402165E-002   0.0000000000000000     
   1.5728255213262689E-002   6.1487422534571456E-002   0.0000000000000000     
   1.4720218553409072E-002   6.4577026067886789E-002   0.0000000000000000     
   1.6175463249594270E-002   5.1402470923240073E-002   0.0000000000000000     
   1.5695707392910995E-002   5.4922297871688244E-002   0.0000000000000000     
   1.5064080558473608E-002   5.8333942782196301E-002   0.0000000000000000     
   1.4283233406660472E-002   6.1609450048905057E-002   0.0000000000000000     
   1.3355816597849998E-002   6.4720864065955383E-002   0.0000000000000000     
   1.4648155099817465E-002   5.1449236575960962E-002   0.0000000000000000     
   1.4212566582374587E-002   5.4990729580062167E-002   0.0000000000000000     
   1.3634978421165988E-002   5.8422218702084534E-002   0.0000000000000000     
   1.2918862466753009E-002   6.1716675290455499E-002   0.0000000000000000     
   1.2067690569696950E-002   6.4847070693602474E-002   0.0000000000000000     
   1.3203735813917759E-002   5.1488650143196216E-002   0.0000000000000000     
   1.2810357764271727E-002   5.5050130843325176E-002   0.0000000000000000     
   1.2284399467799099E-002   5.8499606633810229E-002   0.0000000000000000     
   1.1630338049193304E-002   6.1811093079530262E-002   0.0000000000000000     
   1.0852650633147750E-002   6.4958605745364092E-002   0.0000000000000000     
   1.6164086272176342E-002   6.4412596904860620E-002   0.0000000000000000     
   1.4907963945894500E-002   6.7289269443640831E-002   0.0000000000000000     
   1.3496826279718922E-002   6.9962384485022941E-002   0.0000000000000000     
   1.1937199432198497E-002   7.2417816412040398E-002   0.0000000000000000     
   1.0235609561882110E-002   7.4641439607726665E-002   0.0000000000000000     
   1.4720218553409072E-002   6.4577026067886789E-002   0.0000000000000000     
   1.3558399307537166E-002   6.7477204951565464E-002   0.0000000000000000     
   1.2249376788255422E-002   7.0171900356636757E-002   0.0000000000000000     
   1.0800414717797942E-002   7.2647459774832904E-002   0.0000000000000000     
   9.2187768183988380E-003   7.4890230697886140E-002   0.0000000000000000     
   1.3355816597849998E-002   6.4720864065955383E-002   0.0000000000000000     
   1.2285139287530816E-002   6.7642554200496335E-002   0.0000000000000000     
   1.1077144611632598E-002   7.0358189711710054E-002   0.0000000000000000     
   9.7384342011952712E-003   7.2853764831786932E-002   0.0000000000000000     
   8.2756096872587739E-003   7.5115273792917464E-002   0.0000000000000000     
   1.2067690569696950E-002   6.4847070693602474E-002   0.0000000000000000     
   1.1085230773951665E-002   6.7788414799191052E-002   0.0000000000000000     
   9.9764358970411190E-003   7.0523871651839695E-002   0.0000000000000000     
   8.7465549498818070E-003   7.3038643835404982E-002   0.0000000000000000     
   7.4008369433902080E-003   7.5317933933743461E-002   0.0000000000000000     
   1.0852650633147750E-002   6.4958605745364092E-002   0.0000000000000000     
   9.9557206548759290E-003   6.7917884356407346E-002   0.0000000000000000     
   8.9435567916716571E-003   7.0671565278622644E-002   0.0000000000000000     
   7.8200740313488556E-003   7.3204009038189397E-002   0.0000000000000000     
   6.5891873617214269E-003   7.5499576161287052E-002   0.0000000000000000     
   1.0235609561882110E-002   7.4641439607726665E-002   0.0000000000000000     
   8.3980179429968063E-003   7.6617999466658177E-002   0.0000000000000000     
   6.4281263124822182E-003   7.8327725429583286E-002   0.0000000000000000     
   4.3290715229561258E-003   7.9749717948793222E-002   0.0000000000000000     
   2.1039904270363056E-003   8.0863077476579281E-002   0.0000000000000000     
   9.2187768183988380E-003   7.4890230697886140E-002   0.0000000000000000     
   7.5109661984718431E-003   7.6885350640400682E-002   0.0000000000000000     
   5.6804435111492378E-003   7.8613117208468600E-002   0.0000000000000000     
   3.7299087957429295E-003   8.0052618031053943E-002   0.0000000000000000     
   1.6620620915648305E-003   8.1182940737120762E-002   0.0000000000000000     
   8.2756096872587739E-003   7.5115273792917464E-002   0.0000000000000000     
   6.6947959083255145E-003   7.7127565195290335E-002   0.0000000000000000     
   5.0002105327478768E-003   7.8870905111087769E-002   0.0000000000000000     
   3.1955944363407165E-003   8.0324413980490381E-002   0.0000000000000000     
   1.2846884949189092E-003   8.1467212243678783E-002   0.0000000000000000     
   7.4008369433902080E-003   7.5317933933743461E-002   0.0000000000000000     
   5.9445654232395647E-003   7.7345923963531002E-002   0.0000000000000000     
   4.3831620741301303E-003   7.9102713672720371E-002   0.0000000000000000     
   2.7220831155189040E-003   8.0567382242083666E-002   0.0000000000000000     
   9.6678476686288834E-004   8.1719008852392888E-002   0.0000000000000000     
   6.5891873617214269E-003   7.5499576161287052E-002   0.0000000000000000     
   5.2553330938957376E-003   7.7541707777326621E-002   0.0000000000000000     
   3.8250328321480054E-003   7.9310167428646008E-002   0.0000000000000000     
   2.3053295040469050E-003   8.0783799260814859E-002   0.0000000000000000     
   7.0326603716111406E-004   8.1941447419402666E-002   0.0000000000000000     
   2.1039904270363056E-003   8.0863077476579281E-002   0.0000000000000000     
  -2.4409307835488218E-004   8.1645333652008795E-002   0.0000000000000000     
  -2.7126069190767698E-003   8.2067732861253323E-002   0.0000000000000000     
  -5.2990919766841083E-003   8.2099950677260419E-002   0.0000000000000000     
  -8.0010891327316532E-003   8.1711662672977692E-002   0.0000000000000000     
   1.6620620915648305E-003   8.1182940737120762E-002   0.0000000000000000     
  -5.1844863796784210E-004   8.1981058326396683E-002   0.0000000000000000     
  -2.7991837330166480E-003   8.2415485281663731E-002   0.0000000000000000     
  -5.1657556096378386E-003   8.2452621456467451E-002   0.0000000000000000     
  -7.6037766838876674E-003   8.2058866704353473E-002   0.0000000000000000     
   1.2846884949189092E-003   8.1467212243678783E-002   0.0000000000000000     
  -7.2619955002430178E-004   8.2275753795933521E-002   0.0000000000000000     
  -2.8204944942821345E-003   8.2715826352934965E-002   0.0000000000000000     
  -4.9790542679694228E-003   8.2750551085463545E-002   0.0000000000000000     
  -7.1827368012010034E-003   8.2343049164299631E-002   0.0000000000000000     
   9.6678476686288834E-004   8.1719008852392888E-002   0.0000000000000000     
  -8.7499022828053106E-004   8.2533562533612645E-002   0.0000000000000000     
  -2.7863530299524217E-003   8.2974571712477546E-002   0.0000000000000000     
  -4.7481282740934640E-003   8.3002454664914668E-002   0.0000000000000000     
  -6.7411405966443412E-003   8.2577629666851143E-002   0.0000000000000000     
   7.0326603716111406E-004   8.1941447419402666E-002   0.0000000000000000     
  -9.7246508649280082E-004   8.2758627012427574E-002   0.0000000000000000     
  -2.7065731671067021E-003   8.3197536997702007E-002   0.0000000000000000     
  -4.4821179504245636E-003   8.3217047295486860E-002   0.0000000000000000     
  -6.2821591821903581E-003   8.2776027826043069E-002   0.0000000000000000     
   0.0000000000000000        0.0000000000000000        0.0000000000000000     
   1.6935235020723064E-003   1.7198283343146685E-003   0.0000000000000000     
   3.4013011842565972E-003   3.8941931008619436E-003   0.0000000000000000     
   5.0627390336775097E-003   6.4250432157138982E-003   0.0000000000000000     
   6.6172430374596804E-003   9.2143275949426017E-003   0.0000000000000000     
   0.0000000000000000        0.0000000000000000        0.0000000000000000     
   1.4627256945999019E-003   1.6400456779826680E-003   0.0000000000000000     
   2.9449860918069493E-003   3.7563625373343104E-003   0.0000000000000000     
   4.3983870254653175E-003   6.2503851962913146E-003   0.0000000000000000     
   5.7745343294191825E-003   9.0235482730900689E-003   0.0000000000000000     
   0.0000000000000000        0.0000000000000000        0.0000000000000000     
   1.2609884145731813E-003   1.5871283716170611E-003   0.0000000000000000     
   2.5448558743776687E-003   3.6564840224488611E-003   0.0000000000000000     
   3.8121864961508595E-003   6.1139906874492049E-003   0.0000000000000000     
   5.0235643966301527E-003   8.8655721015719023E-003   0.0000000000000000     
   0.0000000000000000        0.0000000000000000        0.0000000000000000     
   1.0838384538588372E-003   1.5543906241321545E-003   0.0000000000000000     
   2.1917264848292138E-003   3.5861336311294859E-003   0.0000000000000000     
   3.2911233569157144E-003   6.0088036096946195E-003   0.0000000000000000     
   4.3494883341229197E-003   8.7359751485301812E-003   0.0000000000000000     
   0.0000000000000000        0.0000000000000000        0.0000000000000000     
   9.2680260432356353E-004   1.5351466444422596E-003   0.0000000000000000     
   1.8764138760220465E-003   3.5368874383000749E-003   0.0000000000000000     
   2.8221835189414573E-003   5.9277678835345966E-003   0.0000000000000000     
   3.7374612369278047E-003   8.6303334821069746E-003   0.0000000000000000     
   6.6172430374596804E-003   9.2143275949426017E-003   0.0000000000000000     
   8.0149050084068058E-003   1.2179267064833273E-002   0.0000000000000000     
   9.2485600620388388E-003   1.5298170092523738E-002   0.0000000000000000     
   1.0321729139554795E-002   1.8564617055364989E-002   0.0000000000000000     
   1.1237933182153688E-002   2.1972188330708006E-002   0.0000000000000000     
   5.7745343294191825E-003   9.0235482730900689E-003   0.0000000000000000     
   7.0322121445665266E-003   1.1991578643808900E-002   0.0000000000000000     
   8.1589178400205634E-003   1.5127372215893940E-002   0.0000000000000000     
   9.1493270919483175E-003   1.8418117154633252E-002   0.0000000000000000     
   9.9981155765168136E-003   2.1851001625314906E-002   0.0000000000000000     
   5.0235643966301527E-003   8.8655721015719023E-003   0.0000000000000000     
   6.1444832639136722E-003   1.1829763239889284E-002   0.0000000000000000     
   7.1600750715424656E-003   1.4975544037947831E-002   0.0000000000000000     
   8.0603813644182960E-003   1.8284505671412533E-002   0.0000000000000000     
   8.8354436874429430E-003   2.1738239315948406E-002   0.0000000000000000     
   4.3494883341229197E-003   8.7359751485301812E-003   0.0000000000000000     
   5.3377540915714094E-003   1.1691754816327136E-002   0.0000000000000000     
   6.2407469488457538E-003   1.4842377101729818E-002   0.0000000000000000     
   7.0467666366465249E-003   1.8164608473370900E-002   0.0000000000000000     
   7.7441128856742874E-003   2.1635215399883057E-002   0.0000000000000000     
   3.7374612369278047E-003   8.6303334821069746E-003   0.0000000000000000     
   4.5980603526628834E-003   1.1575487336375158E-002   0.0000000000000000     
   5.3896486641716304E-003   1.4727562950284311E-002   0.0000000000000000     
   6.1003575883147752E-003   1.8059251428176396E-002   0.0000000000000000     
   6.7183185419530372E-003   2.1543243874393374E-002   0.0000000000000000     
   1.1237933182153688E-002   2.1972188330708006E-002   0.0000000000000000     
   1.2000421813561849E-002   2.5510290909357029E-002   0.0000000000000000     