 <VTKFile type="UnstructuredGrid"  version="0.1"   >
 <UnstructuredGrid>
 <Piece  NumberOfPoints="          1600 "  NumberOfCells="         1024 ">
 <Points>
 <DataArray  type="Float64" NumberOfComponents="3"  format="ascii" >
  -10.000000000000000        0.0000000000000000        0.0000000000000000     
  -9.6875000000000000        0.0000000000000000        0.0000000000000000     
  -9.3750000000000000        0.0000000000000000        0.0000000000000000     
  -9.0625000000000000        0.0000000000000000        0.0000000000000000     
  -8.7500000000000000        0.0000000000000000        0.0000000000000000     
  -10.000000000000000       0.15625000000000000        0.0000000000000000     
  -9.6875000000000000       0.15625000000000000        0.0000000000000000     
  -9.3750000000000000       0.15625000000000000        0.0000000000000000     
  -9.0625000000000018       0.15625000000000003        0.0000000000000000     
  -8.7500000000000000       0.15625000000000000        0.0000000000000000     
  -10.000000000000000       0.31250000000000006        0.0000000000000000     
  -9.6875000000000000       0.31250000000000000        0.0000000000000000     
  -9.3750000000000000       0.31250000000000000        0.0000000000000000     
  -9.0625000000000000       0.31250000000000006        0.0000000000000000     
  -8.7500000000000000       0.31250000000000000        0.0000000000000000     
  -10.000000000000000       0.46875000000000000        0.0000000000000000     
  -9.6875000000000000       0.46875000000000000        0.0000000000000000     
  -9.3750000000000000       0.46875000000000000        0.0000000000000000     
  -9.0625000000000000       0.46875000000000000        0.0000000000000000     
  -8.7500000000000000       0.46875000000000000        0.0000000000000000     
  -10.000000000000000       0.62500000000000011        0.0000000000000000     
  -9.6875000000000000       0.62500000000000000        0.0000000000000000     
  -9.3750000000000000       0.62499999999999989        0.0000000000000000     
  -9.0625000000000000       0.62500000000000011        0.0000000000000000     
  -8.7500000000000018       0.62500000000000022        0.0000000000000000     
  -8.7500000000000000        0.0000000000000000        0.0000000000000000     
  -8.4375000000000000        0.0000000000000000        0.0000000000000000     
  -8.1250000000000000        0.0000000000000000        0.0000000000000000     
  -7.8124999999999991        0.0000000000000000        0.0000000000000000     
  -7.5000000000000018        0.0000000000000000        0.0000000000000000     
  -8.7500000000000000       0.15625000000000000        0.0000000000000000     
  -8.4375000000000000       0.15625000000000000        0.0000000000000000     
  -8.1250000000000018       0.15625000000000000        0.0000000000000000     
  -7.8125000000000000       0.15625000000000003        0.0000000000000000     
  -7.5000000000000000       0.15625000000000000        0.0000000000000000     
  -8.7500000000000000       0.31250000000000000        0.0000000000000000     
  -8.4375000000000000       0.31250000000000000        0.0000000000000000     
  -8.1250000000000018       0.31250000000000000        0.0000000000000000     
  -7.8125000000000009       0.31250000000000006        0.0000000000000000     
  -7.5000000000000009       0.31250000000000000        0.0000000000000000     
  -8.7500000000000000       0.46875000000000000        0.0000000000000000     
  -8.4375000000000018       0.46875000000000000        0.0000000000000000     
  -8.1250000000000000       0.46875000000000000        0.0000000000000000     
  -7.8125000000000000       0.46875000000000000        0.0000000000000000     
  -7.5000000000000009       0.46875000000000006        0.0000000000000000     
  -8.7500000000000018       0.62500000000000022        0.0000000000000000     
  -8.4375000000000018       0.62500000000000011        0.0000000000000000     
  -8.1250000000000000       0.62499999999999989        0.0000000000000000     
  -7.8125000000000000       0.62500000000000011        0.0000000000000000     
  -7.5000000000000009       0.62500000000000011        0.0000000000000000     
  -7.5000000000000018        0.0000000000000000        0.0000000000000000     
  -7.1875000000000000        0.0000000000000000        0.0000000000000000     
  -6.8750000000000009        0.0000000000000000        0.0000000000000000     
  -6.5625000000000000        0.0000000000000000        0.0000000000000000     
  -6.2500000000000000        0.0000000000000000        0.0000000000000000     
  -7.5000000000000000       0.15625000000000000        0.0000000000000000     
  -7.1875000000000000       0.15625000000000000        0.0000000000000000     
  -6.8750000000000009       0.15625000000000003        0.0000000000000000     
  -6.5625000000000009       0.15625000000000003        0.0000000000000000     
  -6.2500000000000000       0.15625000000000000        0.0000000000000000     
  -7.5000000000000009       0.31250000000000000        0.0000000000000000     
  -7.1875000000000000       0.31250000000000000        0.0000000000000000     
  -6.8750000000000009       0.31250000000000011        0.0000000000000000     
  -6.5624999999999991       0.31249999999999989        0.0000000000000000     
  -6.2500000000000009       0.31250000000000000        0.0000000000000000     
  -7.5000000000000009       0.46875000000000006        0.0000000000000000     
  -7.1875000000000000       0.46875000000000000        0.0000000000000000     
  -6.8749999999999991       0.46874999999999994        0.0000000000000000     
  -6.5625000000000009       0.46875000000000000        0.0000000000000000     
  -6.2500000000000009       0.46875000000000006        0.0000000000000000     
  -7.5000000000000009       0.62500000000000011        0.0000000000000000     
  -7.1875000000000018       0.62500000000000022        0.0000000000000000     
  -6.8750000000000009       0.62500000000000000        0.0000000000000000     
  -6.5625000000000000       0.62500000000000000        0.0000000000000000     
  -6.2500000000000009       0.62500000000000011        0.0000000000000000     
  -6.2500000000000000        0.0000000000000000        0.0000000000000000     
  -5.9375000000000000        0.0000000000000000        0.0000000000000000     
  -5.6250000000000009        0.0000000000000000        0.0000000000000000     
  -5.3125000000000009        0.0000000000000000        0.0000000000000000     
  -5.0000000000000009        0.0000000000000000        0.0000000000000000     
  -6.2500000000000000       0.15625000000000000        0.0000000000000000     
  -5.9375000000000000       0.15625000000000000        0.0000000000000000     
  -5.6250000000000009       0.15625000000000003        0.0000000000000000     
  -5.3125000000000000       0.15625000000000003        0.0000000000000000     
  -5.0000000000000000       0.15625000000000000        0.0000000000000000     
  -6.2500000000000009       0.31250000000000000        0.0000000000000000     
  -5.9375000000000000       0.31250000000000000        0.0000000000000000     
  -5.6250000000000018       0.31250000000000011        0.0000000000000000     
  -5.3124999999999991       0.31249999999999989        0.0000000000000000     
  -5.0000000000000000       0.31250000000000000        0.0000000000000000     
  -6.2500000000000009       0.46875000000000006        0.0000000000000000     
  -5.9375000000000009       0.46875000000000000        0.0000000000000000     
  -5.6249999999999991       0.46874999999999994        0.0000000000000000     
  -5.3125000000000000       0.46875000000000000        0.0000000000000000     
  -5.0000000000000000       0.46875000000000006        0.0000000000000000     
  -6.2500000000000009       0.62500000000000011        0.0000000000000000     
  -5.9375000000000009       0.62500000000000022        0.0000000000000000     
  -5.6250000000000000       0.62500000000000000        0.0000000000000000     
  -5.3125000000000000       0.62500000000000000        0.0000000000000000     
  -5.0000000000000009       0.62500000000000011        0.0000000000000000     
  -5.0000000000000009        0.0000000000000000        0.0000000000000000     
  -4.6875000000000000        0.0000000000000000        0.0000000000000000     
  -4.3750000000000009        0.0000000000000000        0.0000000000000000     
  -4.0625000000000009        0.0000000000000000        0.0000000000000000     
  -3.7500000000000004        0.0000000000000000        0.0000000000000000     
  -5.0000000000000000       0.15625000000000000        0.0000000000000000     
  -4.6875000000000000       0.15625000000000000        0.0000000000000000     
  -4.3750000000000009       0.15625000000000003        0.0000000000000000     
  -4.0625000000000000       0.15625000000000003        0.0000000000000000     
  -3.7500000000000000       0.15625000000000000        0.0000000000000000     
  -5.0000000000000000       0.31250000000000000        0.0000000000000000     
  -4.6875000000000000       0.31250000000000000        0.0000000000000000     
  -4.3750000000000009       0.31250000000000011        0.0000000000000000     
  -4.0624999999999991       0.31249999999999989        0.0000000000000000     
  -3.7500000000000009       0.31250000000000000        0.0000000000000000     
  -5.0000000000000000       0.46875000000000006        0.0000000000000000     
  -4.6875000000000000       0.46875000000000000        0.0000000000000000     
  -4.3749999999999991       0.46874999999999994        0.0000000000000000     
  -4.0625000000000000       0.46875000000000000        0.0000000000000000     
  -3.7500000000000004       0.46875000000000006        0.0000000000000000     
  -5.0000000000000009       0.62500000000000011        0.0000000000000000     
  -4.6875000000000009       0.62500000000000022        0.0000000000000000     
  -4.3750000000000000       0.62500000000000000        0.0000000000000000     
[...]
 <PointData>
 <DataArray  type="Float64" Name="disp" NumberOfComponents="3" format="ascii">
   0.0000000000000000        0.0000000000000000        0.0000000000000000     
  -1.1227876116955315E-002  -9.6223907371131255E-003   0.0000000000000000     
  -1.8514514731972687E-002  -2.0067473436343315E-002   0.0000000000000000     
  -2.2672949896632974E-002  -3.0835702941124556E-002   0.0000000000000000     
  -2.4516215662517070E-002  -4.1427534094890861E-002   0.0000000000000000     
   0.0000000000000000        0.0000000000000000        0.0000000000000000     
  -7.6777393452870206E-003  -8.7814179879147948E-003   0.0000000000000000     
  -1.3467274143046297E-002  -1.9102850372367641E-002   0.0000000000000000     
  -1.7446184547169067E-002  -3.0166580583308445E-002   0.0000000000000000     
  -1.9692050711546567E-002  -4.1174892050687077E-002   0.0000000000000000     
   0.0000000000000000        0.0000000000000000        0.0000000000000000     
  -5.3474596417495864E-003  -8.3025661538727764E-003   0.0000000000000000     
  -9.8732186692405358E-003  -1.8488609796398044E-002   0.0000000000000000     
  -1.3348237029441080E-002  -2.9639066012613475E-002   0.0000000000000000     
  -1.5543474669319442E-002  -4.0834869887556732E-002   0.0000000000000000     
   0.0000000000000000        0.0000000000000000        0.0000000000000000     
  -3.8873898890278342E-003  -8.0949834897352489E-003   0.0000000000000000     
  -7.3672596778980729E-003  -1.8150310336011190E-002   0.0000000000000000     
  -1.0175641344491374E-002  -2.9247518541997721E-002   0.0000000000000000     
  -1.2048566866688405E-002  -4.0468146110864765E-002   0.0000000000000000     
   0.0000000000000000        0.0000000000000000        0.0000000000000000     
  -2.9478829698065898E-003  -8.0678182502503925E-003   0.0000000000000000     
  -5.5843085363615763E-003  -1.8013510618783764E-002   0.0000000000000000     
  -7.7249314933623180E-003  -2.8986297484419284E-002   0.0000000000000000     
  -9.1854066345061734E-003  -4.0135399225976108E-002   0.0000000000000000     
  -2.4516215662517070E-002  -4.1427534094890861E-002   0.0000000000000000     
  -2.4748664754616789E-002  -5.1415627762687613E-002   0.0000000000000000     
  -2.3639924591567798E-002  -6.0661468896005932E-002   0.0000000000000000     
  -2.1350941265416715E-002  -6.9098748467948307E-002   0.0000000000000000     
  -1.8042660868210155E-002  -7.6661157451617279E-002   0.0000000000000000     
  -1.9692050711546567E-002  -4.1174892050687077E-002   0.0000000000000000     
  -2.0309043735094543E-002  -5.1460552580149428E-002   0.0000000000000000     
  -1.9507698496826830E-002  -6.0878267480125342E-002   0.0000000000000000     
  -1.7525140820781753E-002  -6.9413226434740599E-002   0.0000000000000000     
  -1.4598496530997649E-002  -7.7050619128121001E-002   0.0000000000000000     
  -1.5543474669319442E-002  -4.0834869887556732E-002   0.0000000000000000     
  -1.6303525258792584E-002  -5.1307352312827570E-002   0.0000000000000000     
  -1.5767517359572412E-002  -6.0889427406273948E-002   0.0000000000000000     
  -1.4148213256319561E-002  -6.9564405092305895E-002   0.0000000000000000     
  -1.1658375233694684E-002  -7.7315595295333481E-002   0.0000000000000000     
  -1.2048566866688405E-002  -4.0468146110864765E-002   0.0000000000000000     
  -1.2788557587516462E-002  -5.1038321168431128E-002   0.0000000000000000     
  -1.2464092310589391E-002  -6.0762532331111327E-002   0.0000000000000000     
  -1.1210139204667674E-002  -6.9589858337968838E-002   0.0000000000000000     
  -9.1616664385118004E-003  -7.7469377928067101E-002   0.0000000000000000     
  -9.1854066345061734E-003  -4.0135399225976108E-002   0.0000000000000000     
  -9.8205889830717454E-003  -5.0735753354669240E-002   0.0000000000000000     
  -9.6421344806626140E-003  -6.0565165911297111E-002   0.0000000000000000     
  -8.7008992984636130E-003  -6.9527160069054045E-002   0.0000000000000000     
  -7.0477396076595684E-003  -7.7525259001134328E-002   0.0000000000000000     
  -1.8042660868210155E-002  -7.6661157451617279E-002   0.0000000000000000     
  -1.3866467125766620E-002  -8.3261871064773216E-002   0.0000000000000000     
  -8.9354942989922116E-003  -8.8732001503808264E-002   0.0000000000000000     
  -3.3533142825649064E-003  -9.2882145209772379E-002   0.0000000000000000     
   2.7765010288373099E-003  -9.5522898623715602E-002   0.0000000000000000     
  -1.4598496530997649E-002  -7.7050619128121001E-002   0.0000000000000000     
  -1.0937383741335143E-002  -8.3743741862476045E-002   0.0000000000000000     
  -6.6413897249439791E-003  -8.9318317412349801E-002   0.0000000000000000     
  -1.7825940447961834E-003  -9.3568175170370013E-002   0.0000000000000000     
   3.5669237361362106E-003  -9.6287144529164440E-002   0.0000000000000000     
  -1.1658375233694684E-002  -7.7315595295333481E-002   0.0000000000000000     
  -8.4880660433479336E-003  -8.4095691913186152E-002   0.0000000000000000     
  -4.7365503048876238E-003  -8.9734924737371310E-002   0.0000000000000000     
  -4.8039310491157603E-004  -9.4032907532815735E-002   0.0000000000000000     
   4.2038404699823772E-003  -9.6789254064446328E-002   0.0000000000000000     
  -9.1616664385118004E-003  -7.7469377928067101E-002   0.0000000000000000     
  -6.4474416510213895E-003  -8.4328249304256184E-002   0.0000000000000000     
  -3.1714303616525918E-003  -9.0005948524532739E-002   0.0000000000000000     
   5.6860243999928774E-004  -9.4320031110680116E-002   0.0000000000000000     
   4.6748917643389554E-003  -9.7088052584481652E-002   0.0000000000000000     
  -7.0477396076595684E-003  -7.7525259001134328E-002   0.0000000000000000     
  -4.7444381835718931E-003  -8.4451942123038734E-002   0.0000000000000000     
  -1.8964842180683322E-003  -9.0155513819494049E-002   0.0000000000000000     
   1.3797064928467743E-003  -9.4473234717533605E-002   0.0000000000000000     
   4.9677181531690958E-003  -9.7242365444190695E-002   0.0000000000000000     
   2.7765010288373099E-003  -9.5522898623715602E-002   0.0000000000000000     
   9.3317017253073745E-003  -9.6501334718172391E-002   0.0000000000000000     
   1.6115325836021904E-002  -9.5810432591615133E-002   0.0000000000000000     
   2.2911733374928415E-002  -9.3479647874000579E-002   0.0000000000000000     
   2.9505284355974451E-002  -8.9538436195285606E-002   0.0000000000000000     
   3.5669237361362106E-003  -9.6287144529164440E-002   0.0000000000000000     
   9.3144641004865806E-003  -9.7309250703074390E-002   0.0000000000000000     
   1.5284847713309907E-002  -9.6629302193295533E-002   0.0000000000000000     
   2.1282275285266567E-002  -9.4282303322737168E-002   0.0000000000000000     
   2.7110947527016951E-002  -9.0303258414308502E-002   0.0000000000000000     
   4.2038404699823772E-003  -9.6789254064446328E-002   0.0000000000000000     
   9.2252845346368229E-003  -9.7842032330224898E-002   0.0000000000000000     
   1.4435870009656038E-002  -9.7183127260253729E-002   0.0000000000000000     
   1.9673227017084700E-002  -9.4842878017669927E-002   0.0000000000000000     
   2.4774985678967503E-002  -9.0851623765610956E-002   0.0000000000000000     
   4.6748917643389554E-003  -9.7088052584481652E-002   0.0000000000000000     
   9.0451599956716030E-003  -9.8161435689042967E-002   0.0000000000000000     
   1.3559079013904357E-002  -9.7527072052759289E-002   0.0000000000000000     
   1.8091808072844860E-002  -9.5205720525348217E-002   0.0000000000000000     
   2.2518506426300700E-002  -9.1218139956527264E-002   0.0000000000000000     
   4.9677181531690958E-003  -9.7242365444190695E-002   0.0000000000000000     
   8.7550874515044102E-003  -9.8329216868947453E-002   0.0000000000000000     
   1.2645161014898954E-002  -9.7716300831081959E-002   0.0000000000000000     
   1.6545237955009076E-002  -9.5415179412321097E-002   0.0000000000000000     
   2.0362617383491138E-002  -9.1437414694391844E-002   0.0000000000000000     
   2.9505284355974451E-002  -8.9538436195285606E-002   0.0000000000000000     
   3.5696557061311175E-002  -8.4039758012929205E-002   0.0000000000000000     
   4.1351002845904365E-002  -7.7130593094399402E-002   0.0000000000000000     
   4.6350291332923420E-002  -6.8981426034666338E-002   0.0000000000000000     
   5.0576092145537745E-002  -5.9762741428700208E-002   0.0000000000000000     
   2.7110947527016951E-002  -9.0303258414308502E-002   0.0000000000000000     
   3.2589365048366153E-002  -8.4749784194503727E-002   0.0000000000000000     
   3.7593228055698168E-002  -7.7769947004156542E-002   0.0000000000000000     
   4.2012536654541729E-002  -6.9534425587685564E-002   0.0000000000000000     
   4.5737290950425530E-002  -6.0213898689509382E-002   0.0000000000000000     
   2.4774985678967503E-002  -9.0851623765610956E-002   0.0000000000000000     
   2.9587919982978623E-002  -8.5263687825137241E-002   0.0000000000000000     
   3.3995379379310249E-002  -7.8229330149003032E-002   0.0000000000000000     
   3.7889857183783987E-002  -6.9922794847885716E-002   0.0000000000000000     
   4.1163846712221543E-002  -6.0518326032462863E-002   0.0000000000000000     
   2.2518506426300700E-002  -9.1218139956527264E-002   0.0000000000000000     
   2.6717361414810299E-002  -8.5611418488874241E-002   0.0000000000000000     
   3.0578672725835157E-002  -7.8537961436407941E-002   0.0000000000000000     
   3.3995768133567604E-002  -7.0176503406007451E-002   0.0000000000000000     
   3.6861975412199870E-002  -6.0705779004551784E-002   0.0000000000000000     
   2.0362617383491138E-002  -9.1437414694391844E-002   0.0000000000000000     
   2.4002828893522864E-002  -8.5822925769759181E-002   0.0000000000000000     
   2.7364324004367557E-002  -7.8725059773840492E-002   0.0000000000000000     
   3.0343784716809905E-002  -7.0325520852791340E-002   0.0000000000000000     
   3.2837893031634598E-002  -6.0806013152767249E-002   0.0000000000000000     
   5.0576092145537745E-002  -5.9762741428700208E-002   0.0000000000000000     
   5.3922981545202843E-002  -4.9642135273892475E-002   0.0000000000000000     
   5.6337162346518692E-002  -3.8775649177319835E-002   0.0000000000000000     
   5.7777744002371283E-002  -2.7316436148480214E-002   0.0000000000000000     
   5.8203835965646690E-002  -1.5417649196871563E-002   0.0000000000000000     
   4.5737290950425530E-002  -6.0213898689509382E-002   0.0000000000000000     
   4.8669381631101578E-002  -4.9976906454031564E-002   0.0000000000000000     
   5.0758261713215035E-002  -3.8983434625595302E-002   0.0000000000000000     
   5.1965274795634314E-002  -2.7391330348528732E-002   0.0000000000000000     
   5.2251764477227867E-002  -1.5358440767160007E-002   0.0000000000000000     
   4.1163846712221543E-002  -6.0518326032462863E-002   0.0000000000000000     
   4.3721902180827110E-002  -5.0187951067304830E-002   0.0000000000000000     
   4.5516821407335137E-002  -3.9094830332553801E-002   0.0000000000000000     
   4.6513463109862589E-002  -2.7399907462244851E-002   0.0000000000000000     
   4.6676686006526497E-002  -1.5264126090413100E-002   0.0000000000000000     
   3.6861975412199870E-002  -6.0705779004551784E-002   0.0000000000000000     
   3.9083152496447872E-002  -5.0302010886693956E-002   0.0000000000000000     
   4.0615277963121706E-002  -3.9131373898183108E-002   0.0000000000000000     
   4.1426860549555113E-002  -2.7357530932542402E-002   0.0000000000000000     
   4.1486408993081744E-002  -1.5144144883294939E-002   0.0000000000000000     
   3.2837893031634598E-002  -6.0806013152767249E-002   0.0000000000000000     
   3.4755741880032297E-002  -5.0345827685180554E-002   0.0000000000000000     
   3.6056067914817538E-002  -3.9114602922470994E-002   0.0000000000000000     
   3.6710018719210855E-002  -2.7279564202335162E-002   0.0000000000000000     
   3.6688741876432764E-002  -1.5007936862469633E-002   0.0000000000000000     
   5.8203835965646690E-002  -1.5417649196871563E-002   0.0000000000000000     
   5.7568678158591777E-002  -3.2573851719486929E-003   0.0000000000000000     
   5.5802032380896927E-002   8.8864837170061165E-003   0.0000000000000000     
   5.2827790901613304E-002   2.0711141420753733E-002   0.0000000000000000     
   4.8569845989792117E-002   3.1913771890055009E-002   0.0000000000000000     
   5.2251764477227867E-002  -1.5358440767160007E-002   0.0000000000000000     
   5.1575856331086321E-002  -3.0659593027857167E-003   0.0000000000000000     
   4.9882803827189105E-002   9.2115355154237157E-003   0.0000000000000000     
   4.7114642409737846E-002   2.1176118881329382E-002   0.0000000000000000     
   4.3213407522934205E-002   3.2529865988792414E-002   0.0000000000000000     
   4.6676686006526497E-002  -1.5264126090413100E-002   0.0000000000000000     
   4.5970988880401457E-002  -2.8712775078367334E-003   0.0000000000000000     
   4.4359430774392583E-002   9.5034563677335558E-003   0.0000000000000000     
   4.1804710796362533E-002   2.1562045961803954E-002   0.0000000000000000     
   3.8269528054174065E-002   3.3006461699880661E-002   0.0000000000000000     
   4.1486408993081744E-002  -1.5144144883294939E-002   0.0000000000000000     
   4.0764984600545298E-002  -2.6778673088066413E-003   0.0000000000000000     
   3.9243858956829344E-002   9.7626955731855078E-003   0.0000000000000000     
   3.6906856216327479E-002   2.1875948880101762E-002   0.0000000000000000     
   3.3737800533433220E-002   3.3360297729362366E-002   0.0000000000000000     
   3.6688741876432764E-002  -1.5007936862469633E-002   0.0000000000000000     
   3.5968752285525915E-002  -2.4902562274003344E-003   0.0000000000000000     
   3.4548034108821478E-002   9.9897024310294617E-003   0.0000000000000000     
   3.2429938824472780E-002   2.2124853854147131E-002   0.0000000000000000     
   2.9617817910633150E-002   3.3608112783280061E-002   0.0000000000000000     
   4.8569845989792117E-002   3.1913771890055009E-002   0.0000000000000000     
   4.2985511659709472E-002   4.2182077324233791E-002   0.0000000000000000     
   3.6165788906541221E-002   5.1165832916865758E-002   0.0000000000000000     
   2.8235100470688092E-002   5.8505332110089556E-002   0.0000000000000000     
   1.9317869092550857E-002   6.3840868346043841E-002   0.0000000000000000     
   4.3213407522934205E-002   3.2529865988792414E-002   0.0000000000000000     
   3.8160092044799906E-002   4.2955317765142997E-002   0.0000000000000000     
   3.2091518588637132E-002   5.2056878071587716E-002   0.0000000000000000     
   2.5183467201568183E-002   5.9419416502802261E-002   0.0000000000000000     
   1.7611717930715337E-002   6.4627802653462296E-002   0.0000000000000000     
   3.8269528054174065E-002   3.3006461699880661E-002   0.0000000000000000     
   3.3755918781971352E-002   4.3511217989490376E-002   0.0000000000000000     
   2.8423267719024335E-002   5.2641005166241650E-002   0.0000000000000000     
   2.2470296730884444E-002   5.9933057547763548E-002   0.0000000000000000     
   1.6095727683103123E-002   6.4924609451685128E-002   0.0000000000000000     
   3.3737800533433220E-002   3.3360297729362366E-002   0.0000000000000000     
   2.9756428679397581E-002   4.3881251287485420E-002   0.0000000000000000     
   2.5126127892901303E-002   5.2972734917380589E-002   0.0000000000000000     
   2.0046198029482508E-002   6.0135778031055305E-002   0.0000000000000000     
   1.4715938944679378E-002   6.4871410040517122E-002   0.0000000000000000     
   2.9617817910633150E-002   3.3608112783280061E-002   0.0000000000000000     
   2.6145058545252398E-002   4.4096890949337671E-002   0.0000000000000000     
   2.2165190705466509E-002   5.3106588041557594E-002   0.0000000000000000     
   1.7861780068207975E-002   6.0117100738759539E-002   0.0000000000000000     
   1.3418392310409286E-002   6.4608325719763132E-002   0.0000000000000000     
   0.0000000000000000        0.0000000000000000        0.0000000000000000     
  -2.9478829698065898E-003  -8.0678182502503925E-003   0.0000000000000000     
  -5.5843085363615763E-003  -1.8013510618783764E-002   0.0000000000000000     
  -7.7249314933623180E-003  -2.8986297484419284E-002   0.0000000000000000     
  -9.1854066345061734E-003  -4.0135399225976108E-002   0.0000000000000000     
   0.0000000000000000        0.0000000000000000        0.0000000000000000     
  -2.2340238108604533E-003  -8.1409067195274930E-003   0.0000000000000000     
  -4.2112902185974278E-003  -1.8010564039583954E-002   0.0000000000000000     
  -5.8127488107704963E-003  -2.8846114476270290E-002   0.0000000000000000     
  -6.9193491749392298E-003  -3.9884700545687365E-002   0.0000000000000000     
   0.0000000000000000        0.0000000000000000        0.0000000000000000     
  -1.6698255153231435E-003  -8.2768372991202897E-003   0.0000000000000000     
  -3.1431841250668478E-003  -1.8101003062445990E-002   0.0000000000000000     
  -4.3361639661294296E-003  -2.8803090447679171E-002   0.0000000000000000     
  -5.1648531754092094E-003  -3.9713692612521924E-002   0.0000000000000000     
   0.0000000000000000        0.0000000000000000        0.0000000000000000     
  -1.2340332304181586E-003  -8.4488864199436450E-003   0.0000000000000000     
  -2.3269832628547691E-003  -1.8251154918695597E-002   0.0000000000000000     
  -3.2123549625268756E-003  -2.8829698652208455E-002   0.0000000000000000     
  -3.8236531946515191E-003  -3.9607410776434815E-002   0.0000000000000000     
   0.0000000000000000        0.0000000000000000        0.0000000000000000     
  -9.0539210336899726E-004  -8.6303305129124055E-003   0.0000000000000000     
  -1.7096806390461247E-003  -1.8427346839658514E-002   0.0000000000000000     
  -2.3584998030505839E-003  -2.8898412343420655E-002   0.0000000000000000     
  -2.7974837914015766E-003  -3.9550890387381125E-002   0.0000000000000000     
  -9.1854066345061734E-003  -4.0135399225976108E-002   0.0000000000000000     
  -9.8205889830717454E-003  -5.0735753354669240E-002   0.0000000000000000     
  -9.6421344806626140E-003  -6.0565165911297111E-002   0.0000000000000000     
  -8.7008992984636130E-003  -6.9527160069054045E-002   0.0000000000000000     
  -7.0477396076595684E-003  -7.7525259001134328E-002   0.0000000000000000     
  -6.9193491749392298E-003  -3.9884700545687365E-002   0.0000000000000000     
  -7.4315207556555542E-003  -5.0467935277341419E-002   0.0000000000000000     
  -7.3276124254407918E-003  -6.0355313754360054E-002   0.0000000000000000     
  -6.6054529138086142E-003  -6.9410801573276226E-002   0.0000000000000000     
  -5.2628709502726958E-003  -7.7498364330622890E-002   0.0000000000000000     
  -5.1648531754092094E-003  -3.9713692612521924E-002   0.0000000000000000     
  -5.5550664090313106E-003  -5.0247122134608975E-002   0.0000000000000000     
  -5.4715244000281115E-003  -6.0152569271305863E-002   0.0000000000000000     
  -4.8886744006587960E-003  -6.9262943699910734E-002   0.0000000000000000     
  -3.7809636631825493E-003  -7.7411155097721729E-002   0.0000000000000000     
  -3.8236531946515191E-003  -3.9607410776434815E-002   0.0000000000000000     
  -4.1003924953540031E-003  -5.0071561322723682E-002   0.0000000000000000     
  -4.0061260843926366E-003  -5.9966927824009468E-002   0.0000000000000000     
  -3.5104168524340003E-003  -6.9102664688623056E-002   0.0000000000000000     
  -2.5828276901446630E-003  -7.7287926324895312E-002   0.0000000000000000     
  -2.7974837914015766E-003  -3.9550890387381125E-002   0.0000000000000000     
  -2.9766655667786109E-003  -4.9939500237937202E-002   0.0000000000000000     
  -2.8636731585024236E-003  -5.9808384774345767E-002   0.0000000000000000     
  -2.4305333625540605E-003  -6.8949042779078706E-002   0.0000000000000000     
  -1.6492729749145658E-003  -7.7152973034607858E-002   0.0000000000000000     
  -7.0477396076595684E-003  -7.7525259001134328E-002   0.0000000000000000     
  -4.7444381835718931E-003  -8.4451942123038734E-002   0.0000000000000000     