 <VTKFile type="UnstructuredGrid"  version="0.1"   >
 <UnstructuredGrid>
 <Piece  NumberOfPoints="          1600 "  NumberOfCells="         1024 ">
 <Points>
 <DataArray  type="Float64" NumberOfComponents="3"  format="ascii" >
  -10.000000000000000        0.0000000000000000        0.0000000000000000     
  -9.6875000000000000        0.0000000000000000        0.0000000000000000     
  -9.3750000000000000        0.0000000000000000        0.0000000000000000     
  -9.0625000000000000        0.0000000000000000        0.0000000000000000     
  -8.7500000000000000        0.0000000000000000        0.0000000000000000     
  -10.000000000000000       0.15625000000000000        0.0000000000000000     
  -9.6875000000000000       0.15625000000000000        0.0000000000000000     
  -9.3750000000000000       0.15625000000000000        0.0000000000000000     
  -9.0625000000000018       0.15625000000000003        0.0000000000000000     
  -8.7500000000000000       0.15625000000000000        0.0000000000000000     
  -10.000000000000000       0.31250000000000006        0.0000000000000000     
  -9.6875000000000000       0.31250000000000000        0.0000000000000000     
  -9.3750000000000000       0.31250000000000000        0.0000000000000000     
  -9.0625000000000000       0.31250000000000006        0.0000000000000000     
  -8.7500000000000000       0.31250000000000000        0.0000000000000000     
  -10.000000000000000       0.46875000000000000        0.0000000000000000     
  -9.6875000000000000       0.46875000000000000        0.0000000000000000     
  -9.3750000000000000       0.46875000000000000        0.0000000000000000     
  -9.0625000000000000       0.46875000000000000        0.0000000000000000     
  -8.7500000000000000       0.46875000000000000        0.0000000000000000     
  -10.000000000000000       0.62500000000000011        0.0000000000000000     
  -9.6875000000000000       0.62500000000000000        0.0000000000000000     
  -9.3750000000000000       0.62499999999999989        0.0000000000000000     
  -9.0625000000000000       0.62500000000000011        0.0000000000000000     
  -8.7500000000000018       0.62500000000000022        0.0000000000000000     
  -8.7500000000000000        0.0000000000000000        0.0000000000000000     
  -8.4375000000000000        0.0000000000000000        0.0000000000000000     
  -8.1250000000000000        0.0000000000000000        0.0000000000000000     
  -7.8124999999999991        0.0000000000000000        0.0000000000000000     
  -7.5000000000000018        0.0000000000000000        0.0000000000000000     
  -8.7500000000000000       0.15625000000000000        0.0000000000000000     
  -8.4375000000000000       0.15625000000000000        0.0000000000000000     
  -8.1250000000000018       0.15625000000000000        0.0000000000000000     
  -7.8125000000000000       0.15625000000000003        0.0000000000000000     
  -7.5000000000000000       0.15625000000000000        0.0000000000000000     
  -8.7500000000000000       0.31250000000000000        0.0000000000000000     
  -8.4375000000000000       0.31250000000000000        0.0000000000000000     
  -8.1250000000000018       0.31250000000000000        0.0000000000000000     
  -7.8125000000000009       0.31250000000000006        0.0000000000000000     
  -7.5000000000000009       0.31250000000000000        0.0000000000000000     
  -8.7500000000000000       0.46875000000000000        0.0000000000000000     
  -8.4375000000000018       0.46875000000000000        0.0000000000000000     
  -8.1250000000000000       0.46875000000000000        0.0000000000000000     
  -7.8125000000000000       0.46875000000000000        0.0000000000000000     
  -7.5000000000000009       0.46875000000000006        0.0000000000000000     
  -8.7500000000000018       0.62500000000000022        0.0000000000000000     
  -8.4375000000000018       0.62500000000000011        0.0000000000000000     
  -8.1250000000000000       0.62499999999999989        0.0000000000000000     
  -7.8125000000000000       0.62500000000000011        0.0000000000000000     
  -7.5000000000000009       0.62500000000000011        0.0000000000000000     
  -7.5000000000000018        0.0000000000000000        0.0000000000000000     
  -7.1875000000000000        0.0000000000000000        0.0000000000000000     
  -6.8750000000000009        0.0000000000000000        0.0000000000000000     
  -6.5625000000000000        0.0000000000000000        0.0000000000000000     
  -6.2500000000000000        0.0000000000000000        0.0000000000000000     
  -7.5000000000000000       0.15625000000000000        0.0000000000000000     
  -7.1875000000000000       0.15625000000000000        0.0000000000000000     
  -6.8750000000000009       0.15625000000000003        0.0000000000000000     
  -6.5625000000000009       0.15625000000000003        0.0000000000000000     
  -6.2500000000000000       0.15625000000000000        0.0000000000000000     
  -7.5000000000000009       0.31250000000000000        0.0000000000000000     
  -7.1875000000000000       0.31250000000000000        0.0000000000000000     
  -6.8750000000000009       0.31250000000000011        0.0000000000000000     
  -6.5624999999999991       0.31249999999999989        0.0000000000000000     
  -6.2500000000000009       0.31250000000000000        0.0000000000000000     
  -7.5000000000000009       0.46875000000000006        0.0000000000000000     
  -7.1875000000000000       0.46875000000000000        0.0000000000000000     
  -6.8749999999999991       0.46874999999999994        0.0000000000000000     
  -6.5625000000000009       0.46875000000000000        0.0000000000000000     
  -6.2500000000000009       0.46875000000000006        0.0000000000000000     
  -7.5000000000000009       0.62500000000000011        0.0000000000000000     
  -7.1875000000000018       0.62500000000000022        0.0000000000000000     
  -6.8750000000000009       0.62500000000000000        0.0000000000000000     
  -6.5625000000000000       0.62500000000000000        0.0000000000000000     
  -6.2500000000000009       0.62500000000000011        0.0000000000000000     
  -6.2500000000000000        0.0000000000000000        0.0000000000000000     
  -5.9375000000000000        0.0000000000000000        0.0000000000000000     
  -5.6250000000000009        0.0000000000000000        0.0000000000000000     
  -5.3125000000000009        0.0000000000000000        0.0000000000000000     
  -5.0000000000000009        0.0000000000000000        0.0000000000000000     
  -6.2500000000000000       0.15625000000000000        0.0000000000000000     
  -5.9375000000000000       0.15625000000000000        0.0000000000000000     
  -5.6250000000000009       0.15625000000000003        0.0000000000000000     
  -5.3125000000000000       0.15625000000000003        0.0000000000000000     
  -5.0000000000000000       0.15625000000000000        0.0000000000000000     
  -6.2500000000000009       0.31250000000000000        0.0000000000000000     
  -5.9375000000000000       0.31250000000000000        0.0000000000000000     
  -5.6250000000000018       0.31250000000000011        0.0000000000000000     
  -5.3124999999999991       0.31249999999999989        0.0000000000000000     
  -5.0000000000000000       0.31250000000000000        0.0000000000000000     
  -6.2500000000000009       0.46875000000000006        0.0000000000000000     
  -5.9375000000000009       0.46875000000000000        0.0000000000000000     
  -5.6249999999999991       0.46874999999999994        0.0000000000000000     
  -5.3125000000000000       0.46875000000000000        0.0000000000000000     
  -5.0000000000000000       0.46875000000000006        0.0000000000000000     
  -6.2500000000000009       0.62500000000000011        0.0000000000000000     
  -5.9375000000000009       0.62500000000000022        0.0000000000000000     
  -5.6250000000000000       0.62500000000000000        0.0000000000000000     
  -5.3125000000000000       0.62500000000000000        0.0000000000000000     
  -5.0000000000000009       0.62500000000000011        0.0000000000000000     
  -5.0000000000000009        0.0000000000000000        0.0000000000000000     
  -4.6875000000000000        0.0000000000000000        0.0000000000000000     
  -4.3750000000000009        0.0000000000000000        0.0000000000000000     
  -4.0625000000000009        0.0000000000000000        0.0000000000000000     
  -3.7500000000000004        0.0000000000000000        0.0000000000000000     
  -5.0000000000000000       0.15625000000000000        0.0000000000000000     
  -4.6875000000000000       0.15625000000000000        0.0000000000000000     
  -4.3750000000000009       0.15625000000000003        0.0000000000000000     
  -4.0625000000000000       0.15625000000000003        0.0000000000000000     
  -3.7500000000000000       0.15625000000000000        0.0000000000000000     
  -5.0000000000000000       0.31250000000000000        0.0000000000000000     
  -4.6875000000000000       0.31250000000000000        0.0000000000000000     
  -4.3750000000000009       0.31250000000000011        0.0000000000000000     
  -4.0624999999999991       0.31249999999999989        0.0000000000000000     
  -3.7500000000000009       0.31250000000000000        0.0000000000000000     
  -5.0000000000000000       0.46875000000000006        0.0000000000000000     
  -4.6875000000000000       0.46875000000000000        0.0000000000000000     
  -4.3749999999999991       0.46874999999999994        0.0000000000000000     
  -4.0625000000000000       0.46875000000000000        0.0000000000000000     
  -3.7500000000000004       0.46875000000000006        0.0000000000000000     
  -5.0000000000000009       0.62500000000000011        0.0000000000000000     
  -4.6875000000000009       0.62500000000000022        0.0000000000000000     
  -4.3750000000000000       0.62500000000000000        0.0000000000000000     
[...]
 <PointData>
 <DataArray  type="Float64" Name="disp" NumberOfComponents="3" format="ascii">
   0.0000000000000000        0.0000000000000000        0.0000000000000000     
  -2.3033453755041561E-005  -6.7004182311269282E-005   0.0000000000000000     
  -7.5369687737029248E-006  -1.7946335616230439E-005   0.0000000000000000     
   1.7019039480153658E-005   6.4362754675817245E-005   0.0000000000000000     
   2.1164155542665898E-005   9.7112303155574362E-005   0.0000000000000000     
   0.0000000000000000        0.0000000000000000        0.0000000000000000     
  -2.8595013046815977E-005  -1.4526923724571652E-005   0.0000000000000000     
  -1.2179840284723011E-005  -2.6052739979002350E-006   0.0000000000000000     
   1.6815879536094378E-005   1.5547057554239131E-005   0.0000000000000000     
   2.5962507665451672E-005   1.9712179306071354E-005   0.0000000000000000     
   0.0000000000000000        0.0000000000000000        0.0000000000000000     
  -2.1692464113779511E-005   2.7409791693527712E-006   0.0000000000000000     
  -1.1011970217804538E-005   2.1367495938559514E-006   0.0000000000000000     
   9.1120762252765114E-006  -1.0801986795310247E-006   0.0000000000000000     
   1.5750269752815212E-005  -6.1773756038486864E-006   0.0000000000000000     
   0.0000000000000000        0.0000000000000000        0.0000000000000000     
  -9.6220317625889108E-006  -4.2548318973258725E-007   0.0000000000000000     
  -7.0740600368746437E-006   7.6945551921159191E-007   0.0000000000000000     
  -1.0669810482917016E-006   1.0649804815391121E-006   0.0000000000000000     
  -3.1169102227466759E-007  -2.0587439480433969E-006   0.0000000000000000     
   0.0000000000000000        0.0000000000000000        0.0000000000000000     
   3.2005920009907229E-007  -9.2513203620642540E-006   0.0000000000000000     
  -3.4068112058604813E-006  -2.2174358616598316E-006   0.0000000000000000     
  -8.6959028806020807E-006   8.5665895444819165E-006   0.0000000000000000     
  -1.3062507486849205E-005   1.0565691899629646E-005   0.0000000000000000     
   2.1164155542665898E-005   9.7112303155574362E-005   0.0000000000000000     
  -1.4131632306055631E-005   2.4752921340336631E-005   0.0000000000000000     
  -6.6136720810009193E-005  -9.9219191546220047E-005   0.0000000000000000     
  -1.0167910296922013E-004  -1.9404643935382477E-004   0.0000000000000000     
  -8.7586771783714003E-005  -1.7897122593220664E-004   0.0000000000000000     
   2.5962507665451672E-005   1.9712179306071354E-005   0.0000000000000000     
  -6.3330295186624440E-006  -3.2759828835306732E-006   0.0000000000000000     
  -5.8317545125566497E-005  -3.8376233217102368E-005   0.0000000000000000     
  -9.7401287136405810E-005  -6.3495558412531169E-005   0.0000000000000000     
  -9.0994503532325770E-005  -5.6540945187704462E-005   0.0000000000000000     
   1.5750269752815212E-005  -6.1773756038486864E-006   0.0000000000000000     
  -6.5166323664031770E-006  -1.2169675463680580E-005   0.0000000000000000     
  -4.3067221937858756E-005  -1.7061529869782235E-005   0.0000000000000000     
  -7.1769928035597842E-005  -1.8604754764452201E-005   0.0000000000000000     
  -7.0493179733666892E-005  -1.4551166089988962E-005   0.0000000000000000     
  -3.1169102227466759E-007  -2.0587439480433969E-006   0.0000000000000000     
  -1.0664104032551489E-005  -9.8741748152684866E-006   0.0000000000000000     
  -2.6560205546023883E-005  -1.8664254767625232E-005   0.0000000000000000     
  -3.9580998877886956E-005  -2.3464547853041850E-005   0.0000000000000000     
  -4.1307487343335869E-005  -1.9310618119446523E-005   0.0000000000000000     
  -1.3062507486849205E-005   1.0565691899629646E-005   0.0000000000000000     
  -1.4757107700381026E-005  -4.3354993534498320E-006   0.0000000000000000     
  -1.4970950249199877E-005  -2.6573581173996970E-005   0.0000000000000000     
  -1.5630472874363877E-005  -4.2165457121754024E-005   0.0000000000000000     
  -1.8662113316931120E-005  -3.7128030756463349E-005   0.0000000000000000     
  -8.7586771783714003E-005  -1.7897122593220664E-004   0.0000000000000000     
  -6.5492366917405881E-006  -8.8951909916599895E-006   0.0000000000000000     
   9.5297927115551884E-005   2.1864308231526016E-004   0.0000000000000000     
   1.5595762800879072E-004   3.7044577497543334E-004   0.0000000000000000     
   1.1343277435860334E-004   3.1331506797573918E-004   0.0000000000000000     
  -9.0994503532325770E-005  -5.6540945187704462E-005   0.0000000000000000     
  -2.1110593313221503E-005  -5.4215809233227410E-006   0.0000000000000000     
   7.1824440446012814E-005   6.1944544348661675E-005   0.0000000000000000     
   1.3278144365173308E-004   1.0763723993348328E-004   0.0000000000000000     
   1.0673126221029530E-004   9.3736315136376574E-005   0.0000000000000000     
  -7.0493179733666892E-005  -1.4551166089988962E-005   0.0000000000000000     
  -2.6710678806570076E-005  -3.9668046057014334E-006   0.0000000000000000     
   3.3682782169357217E-005   8.8253896610603620E-006   0.0000000000000000     
   7.5187137917321955E-005   1.8188251865935917E-005   0.0000000000000000     
   6.2302323160531010E-005   1.8484617164564880E-005   0.0000000000000000     
  -4.1307487343335869E-005  -1.9310618119446523E-005   0.0000000000000000     
  -2.6868218643342686E-005  -3.7229201243016840E-006   0.0000000000000000     
  -5.5819180219875649E-006   1.5838529536793219E-005   0.0000000000000000     
   9.6851448908724183E-006   2.9428823758704539E-005   0.0000000000000000     
   6.0667004653801045E-006   2.7103055436298650E-005   0.0000000000000000     
  -1.8662113316931120E-005  -3.7128030756463349E-005   0.0000000000000000     
  -2.5101938295095533E-005  -3.8819855646290456E-006   0.0000000000000000     
  -3.2424530435594353E-005   3.9536875260197316E-005   0.0000000000000000     
  -3.7214101342300626E-005   6.8688968597702279E-005   0.0000000000000000     
  -3.6054862619087405E-005   5.9134711327572372E-005   0.0000000000000000     
   1.1343277435860334E-004   3.1331506797573918E-004   0.0000000000000000     
  -6.3209594102081940E-005  -2.2562260476738728E-005   0.0000000000000000     
  -2.8064591219113263E-004  -4.5346104329409970E-004   0.0000000000000000     
  -4.1448848336411460E-004  -7.3227151616823906E-004   0.0000000000000000     
  -3.4034961107659437E-004  -6.1188391479105207E-004   0.0000000000000000     
   1.0673126221029530E-004   9.3736315136376574E-005   0.0000000000000000     
  -3.5335409859791959E-005  -8.2087368669628194E-008   0.0000000000000000     
  -2.1834848609141022E-004  -1.2375649143265055E-004   0.0000000000000000     
  -3.4121803190528837E-004  -2.0962908753780694E-004   0.0000000000000000     
  -3.0285411272215531E-004  -1.9004206616637969E-004   0.0000000000000000     
   6.2302323160531010E-005   1.8484617164564880E-005   0.0000000000000000     
  -2.4322649903355895E-005   6.2485982875681304E-006   0.0000000000000000     
  -1.3944245917886692E-004  -1.3300581734508136E-005   0.0000000000000000     
  -2.2166270509607736E-004  -3.2772422296136574E-005   0.0000000000000000     
  -2.0958898808506258E-004  -4.4776422791789744E-005   0.0000000000000000     
   6.0667004653801045E-006   2.7103055436298650E-005   0.0000000000000000     
  -2.3819314190208034E-005   3.2903041766212139E-006   0.0000000000000000     
  -6.5418135015182116E-005  -3.0084403564564825E-005   0.0000000000000000     
  -9.8690791210718489E-005  -5.6722054619317048E-005   0.0000000000000000     
  -1.0359831197799374E-004  -6.0323635819693206E-005   0.0000000000000000     
  -3.6054862619087405E-005   5.9134711327572372E-005   0.0000000000000000     
  -2.7473402677782807E-005  -2.0964620168641748E-006   0.0000000000000000     
  -1.7765817162035317E-005  -8.2099046287712745E-005   0.0000000000000000     
  -1.5170578523448614E-005  -1.3649851868343692E-004   0.0000000000000000     
  -2.7926159213626265E-005  -1.2092035640250048E-004   0.0000000000000000     
  -3.4034961107659437E-004  -6.1188391479105207E-004   0.0000000000000000     
   4.0000145499150675E-006   3.5061967533515757E-005   0.0000000000000000     
   4.3215615673011462E-004   8.5692810705331952E-004   0.0000000000000000     
   6.9555619201275808E-004   1.3823269224041642E-003   0.0000000000000000     
   5.4563749694659961E-004   1.1398708322218553E-003   0.0000000000000000     
  -3.0285411272215531E-004  -1.9004206616637969E-004   0.0000000000000000     
  -4.9948465924499872E-005  -2.7917239632918581E-005   0.0000000000000000     
   2.7968048325814946E-004   1.9150509241879139E-004   0.0000000000000000     
   5.0043263763450442E-004   3.5240500851265594E-004   0.0000000000000000     
   4.2670790001327660E-004   3.3896258717258047E-004   0.0000000000000000     
  -2.0958898808506258E-004  -4.4776422791789744E-005   0.0000000000000000     
  -6.9559319401052864E-005  -4.2915198683996188E-005   0.0000000000000000     
   1.2115864640010093E-004  -2.4763829707509061E-005   0.0000000000000000     
   2.5756484393739257E-004   1.1109488334862378E-005   0.0000000000000000     
   2.3465920782981655E-004   6.6136559640309252E-005   0.0000000000000000     
  -1.0359831197799374E-004  -6.0323635819693206E-005   0.0000000000000000     
  -6.8287324745977903E-005  -3.0545196140251149E-005   0.0000000000000000     
  -1.3646849854816135E-005   1.9136966874449259E-005   0.0000000000000000     
   3.1248494127552795E-005   6.9291493537348506E-005   0.0000000000000000     
   3.7324088633190160E-005   1.0048702416138638E-004   0.0000000000000000     
  -2.7926159213626265E-005  -1.2092035640250048E-004   0.0000000000000000     
  -5.9587260825509002E-005  -1.1420518522217407E-005   0.0000000000000000     
  -9.4973501517386404E-005   1.3422310836469693E-004   0.0000000000000000     
  -1.1422072858888520E-004   2.3780215578667686E-004   0.0000000000000000     
  -9.7464789339631960E-005   2.2110825527215649E-004   0.0000000000000000     
   5.4563749694659961E-004   1.1398708322218553E-003   0.0000000000000000     
  -1.4097398286242539E-004  -1.0581392720580631E-004   0.0000000000000000     
  -9.8689802557965617E-004  -1.6460458489830330E-003   0.0000000000000000     
  -1.4895658403132500E-003  -2.5361296085620413E-003   0.0000000000000000     
  -1.1464086361713641E-003  -1.8313698813950457E-003   0.0000000000000000     
   4.2670790001327660E-004   3.3896258717258047E-004   0.0000000000000000     
  -3.9296833885803620E-005   8.6828336737121046E-005   0.0000000000000000     
  -6.4419669669893030E-004  -2.6246551519657206E-004   0.0000000000000000     
  -1.0468098281512786E-003  -5.1591631121669862E-004   0.0000000000000000     
  -9.0595436796802339E-004  -4.8052139391145736E-004   0.0000000000000000     
   2.3465920782981655E-004   6.6136559640309252E-005   0.0000000000000000     
  -6.0215611046569888E-006   1.3357687838959635E-004   0.0000000000000000     
  -3.3679369725215125E-004   1.7400069869778664E-004   0.0000000000000000     
  -5.8343666879981295E-004   1.3980596466351599E-004   0.0000000000000000     
  -5.7172994393478904E-004  -1.6609379614578314E-005   0.0000000000000000     
   3.7324088633190160E-005   1.0048702416138638E-004   0.0000000000000000     
  -1.4116844045696078E-005   9.7699509183018612E-005   0.0000000000000000     
  -1.0025971817631192E-004   6.3534139532760812E-005   0.0000000000000000     
  -1.8791210716571653E-004   5.0034162646448377E-006   0.0000000000000000     
  -2.4388158442096889E-004  -7.0880159567298501E-005   0.0000000000000000     
  -9.7464789339631960E-005   2.2110825527215649E-004   0.0000000000000000     
  -3.6551362235632043E-005   4.2464040548784740E-005   0.0000000000000000     
   2.9834549591594036E-005  -1.9368384585893159E-004   0.0000000000000000     
   5.1298111844147139E-005  -3.4635775922726937E-004   0.0000000000000000     
  -2.2555509775872167E-005  -2.7458005483250818E-004   0.0000000000000000     
  -1.1464086361713641E-003  -1.8313698813950457E-003   0.0000000000000000     
   2.5985727231951368E-004   8.7133284106025199E-004   0.0000000000000000     
   1.8053751489595794E-003   3.8086948033242106E-003   0.0000000000000000     
   2.2810031521307019E-003   4.6758364339117018E-003   0.0000000000000000     
   4.7759944021474713E-004   1.1678781613376026E-003   0.0000000000000000     
  -9.0595436796802339E-004  -4.8052139391145736E-004   0.0000000000000000     
  -5.7701848804012654E-005  -5.0574971869283273E-005   0.0000000000000000     
   9.5286262496721802E-004   5.3044128232045357E-004   0.0000000000000000     
   1.4034005560424592E-003   9.3174883006814728E-004   0.0000000000000000     
   5.7157344711850316E-004   8.2256913278419173E-004   0.0000000000000000     
  -5.7172994393478904E-004  -1.6609379614578314E-005   0.0000000000000000     
  -2.0706457856117506E-004  -2.9034960945552014E-004   0.0000000000000000     
   2.8672202054913607E-004  -4.6652787784897689E-004   0.0000000000000000     
   6.0618085890730259E-004  -2.7775955720227567E-004   0.0000000000000000     
   4.4786294202448233E-004   5.4333998007725524E-004   0.0000000000000000     
  -2.4388158442096889E-004  -7.0880159567298501E-005   0.0000000000000000     
  -2.3946907978438046E-004  -1.4556178830076266E-004   0.0000000000000000     
  -1.6394894883927117E-004  -1.5431747584034259E-004   0.0000000000000000     
  -1.1088903604213241E-005  -2.0880929482356710E-005   0.0000000000000000     
   2.2534334390222151E-004   3.3101414347687391E-004   0.0000000000000000     
  -2.2555509775872167E-005  -2.7458005483250818E-004   0.0000000000000000     
  -2.0615351530603606E-004   8.6217774992686594E-005   0.0000000000000000     
  -3.7005256774260976E-004   4.9496768969009650E-004   0.0000000000000000     
  -3.4884169582153143E-004   6.3419251164511441E-004   0.0000000000000000     
   2.2890071721260108E-005   1.8641506324313485E-004   0.0000000000000000     
   4.7759944021474713E-004   1.1678781613376026E-003   0.0000000000000000     
  -3.6805395445254933E-003  -6.6276691633786744E-003   0.0000000000000000     
  -5.7353642243035277E-003  -9.0537329991995808E-003   0.0000000000000000     
  -9.5386737451938638E-005   5.9391496174169807E-003   0.0000000000000000     
   1.8830880777696686E-002   5.0400441650013096E-002   0.0000000000000000     
   5.7157344711850316E-004   8.2256913278419173E-004   0.0000000000000000     
  -1.7448278386420376E-003  -3.4881960895767638E-005   0.0000000000000000     
  -3.6674949962132736E-003  -1.5064110534351060E-003   0.0000000000000000     
  -2.7979903601034915E-003  -3.3648303600719515E-003   0.0000000000000000     
   3.2621237351790188E-003  -5.3829520960444188E-003   0.0000000000000000     
   4.4786294202448233E-004   5.4333998007725524E-004   0.0000000000000000     
  -3.4876074385387567E-004   1.7287215812952753E-003   0.0000000000000000     
  -1.3725392895451677E-003   8.6860097260939371E-004   0.0000000000000000     
  -2.0694018051324948E-003  -4.9822399001097986E-003   0.0000000000000000     
  -1.8852774006989652E-003  -1.8769019090991705E-002   0.0000000000000000     
   2.2534334390222151E-004   3.3101414347687391E-004   0.0000000000000000     
   5.0231797194402717E-004   7.5941886836324013E-004   0.0000000000000000     
   5.7975671991545772E-004   2.4952370099146331E-004   0.0000000000000000     
   1.6831921749333473E-004  -2.4316960702015214E-003   0.0000000000000000     
  -1.0213349056455196E-003  -8.5172651567787892E-003   0.0000000000000000     
   2.2890071721260108E-005   1.8641506324313485E-004   0.0000000000000000     
   8.0306454085670700E-004  -8.4651269452308748E-004   0.0000000000000000     
   1.6196468563832685E-003  -1.1854222462313454E-003   0.0000000000000000     
   1.9931129978062860E-003   7.6818406214793598E-004   0.0000000000000000     
   1.4439389446310961E-003   6.6128038846443270E-003   0.0000000000000000     
   0.0000000000000000        0.0000000000000000        0.0000000000000000     
   3.2005920009907229E-007  -9.2513203620642540E-006   0.0000000000000000     
  -3.4068112058604813E-006  -2.2174358616598316E-006   0.0000000000000000     
  -8.6959028806020807E-006   8.5665895444819165E-006   0.0000000000000000     
  -1.3062507486849205E-005   1.0565691899629646E-005   0.0000000000000000     
   0.0000000000000000        0.0000000000000000        0.0000000000000000     
   2.6733069874551289E-006  -1.1974966695908529E-005   0.0000000000000000     
  -2.3326693292662078E-006  -3.2549817863569693E-006   0.0000000000000000     
  -1.0096703758994968E-005   1.0733172760641186E-005   0.0000000000000000     
  -1.5697571110562073E-005   1.4562714977072385E-005   0.0000000000000000     
   0.0000000000000000        0.0000000000000000        0.0000000000000000     
  -6.7989810804041698E-007  -8.8885556916507045E-006   0.0000000000000000     
  -3.3010565739039899E-006  -2.4573498835668522E-006   0.0000000000000000     
  -6.9810137362048088E-006   7.7714733586067138E-006   0.0000000000000000     
  -1.0837307933556995E-005   1.0275769969225166E-005   0.0000000000000000     
   0.0000000000000000        0.0000000000000000        0.0000000000000000     
  -6.0214427740798252E-006  -3.2976456377057879E-006   0.0000000000000000     
  -5.0431392471629571E-006  -8.5948537974866235E-007   0.0000000000000000     
  -2.4078667563146456E-006   2.6127843112797641E-006   0.0000000000000000     
  -3.4584026386001379E-006   2.4174669727878916E-006   0.0000000000000000     
   0.0000000000000000        0.0000000000000000        0.0000000000000000     
  -9.6332136983553514E-006   1.4922051775111695E-006   0.0000000000000000     
  -6.2900836564322800E-006   5.0366649863845380E-007   0.0000000000000000     
   5.6370323659251700E-007  -1.8116014084383681E-006   0.0000000000000000     
   1.4624600915423020E-006  -4.2995839155395249E-006   0.0000000000000000     
  -1.3062507486849205E-005   1.0565691899629646E-005   0.0000000000000000     
  -1.4757107700381026E-005  -4.3354993534498320E-006   0.0000000000000000     
  -1.4970950249199877E-005  -2.6573581173996970E-005   0.0000000000000000     
  -1.5630472874363877E-005  -4.2165457121754024E-005   0.0000000000000000     
  -1.8662113316931120E-005  -3.7128030756463349E-005   0.0000000000000000     
  -1.5697571110562073E-005   1.4562714977072385E-005   0.0000000000000000     
  -1.5710086239940641E-005  -1.8953725263409568E-006   0.0000000000000000     
  -1.2693224191672363E-005  -2.7579048823932837E-005   0.0000000000000000     
  -1.0702000057441030E-005  -4.6128508411301302E-005   0.0000000000000000     
  -1.3791428928930504E-005  -4.1183945784044400E-005   0.0000000000000000     
  -1.0837307933556995E-005   1.0275769969225166E-005   0.0000000000000000     
  -1.4168601268380402E-005  -2.4783379139019239E-006   0.0000000000000000     
  -1.6998050898317840E-005  -2.2071663339147550E-005   0.0000000000000000     
  -1.9529937744817896E-005  -3.6096753151430315E-005   0.0000000000000000     
  -2.1968542729329154E-005  -3.2146154195668780E-005   0.0000000000000000     
  -3.4584026386001379E-006   2.4174669727878916E-006   0.0000000000000000     
  -1.1710994089625585E-005  -4.4046441290536896E-006   0.0000000000000000     
  -2.3375767739160598E-005  -1.3842796813025638E-005   0.0000000000000000     
  -3.2836320075515736E-005  -2.0143749169146373E-005   0.0000000000000000     
  -3.4476247587001566E-005  -1.7554259287434315E-005   0.0000000000000000     
   1.4624600915423020E-006  -4.2995839155395249E-006   0.0000000000000000     
  -9.9156060076014839E-006  -5.9945397847172144E-006   0.0000000000000000     
  -2.7316712084224902E-005  -6.6838213389515784E-006   0.0000000000000000     
  -4.1343181188555831E-005  -6.3430542914547218E-006   0.0000000000000000     
  -4.2597336370822234E-005  -4.9478643554387775E-006   0.0000000000000000     
  -1.8662113316931120E-005  -3.7128030756463349E-005   0.0000000000000000     
  -2.5101938295095533E-005  -3.8819855646290456E-006   0.0000000000000000     