 <VTKFile type="UnstructuredGrid"  version="0.1"   >
 <UnstructuredGrid>
 <Piece  NumberOfPoints="          1600 "  NumberOfCells="         1024 ">
 <Points>
 <DataArray  type="Float64" NumberOfComponents="3"  format="ascii" >
  -10.000000000000000        0.0000000000000000        0.0000000000000000     
  -9.6875000000000000        0.0000000000000000        0.0000000000000000     
  -9.3750000000000000        0.0000000000000000        0.0000000000000000     
  -9.0625000000000000        0.0000000000000000        0.0000000000000000     
  -8.7500000000000000        0.0000000000000000        0.0000000000000000     
  -10.000000000000000       0.15625000000000000        0.0000000000000000     
  -9.6875000000000000       0.15625000000000000        0.0000000000000000     
  -9.3750000000000000       0.15625000000000000        0.0000000000000000     
  -9.0625000000000018       0.15625000000000003        0.0000000000000000     
  -8.7500000000000000       0.15625000000000000        0.0000000000000000     
  -10.000000000000000       0.31250000000000006        0.0000000000000000     
  -9.6875000000000000       0.31250000000000000        0.0000000000000000     
  -9.3750000000000000       0.31250000000000000        0.0000000000000000     
  -9.0625000000000000       0.31250000000000006        0.0000000000000000     
  -8.7500000000000000       0.31250000000000000        0.0000000000000000     
  -10.000000000000000       0.46875000000000000        0.0000000000000000     
  -9.6875000000000000       0.46875000000000000        0.0000000000000000     
  -9.3750000000000000       0.46875000000000000        0.0000000000000000     
  -9.0625000000000000       0.46875000000000000        0.0000000000000000     
  -8.7500000000000000       0.46875000000000000        0.0000000000000000     
  -10.000000000000000       0.62500000000000011        0.0000000000000000     
  -9.6875000000000000       0.62500000000000000        0.0000000000000000     
  -9.3750000000000000       0.62499999999999989        0.0000000000000000     
  -9.0625000000000000       0.62500000000000011        0.0000000000000000     
  -8.7500000000000018       0.62500000000000022        0.0000000000000000     
  -8.7500000000000000        0.0000000000000000        0.0000000000000000     
  -8.4375000000000000        0.0000000000000000        0.0000000000000000     
  -8.1250000000000000        0.0000000000000000        0.0000000000000000     
  -7.8124999999999991        0.0000000000000000        0.0000000000000000     
  -7.5000000000000018        0.0000000000000000        0.0000000000000000     
  -8.7500000000000000       0.15625000000000000        0.0000000000000000     
  -8.4375000000000000       0.15625000000000000        0.0000000000000000     
  -8.1250000000000018       0.15625000000000000        0.0000000000000000     
  -7.8125000000000000       0.15625000000000003        0.0000000000000000     
  -7.5000000000000000       0.15625000000000000        0.0000000000000000     
  -8.7500000000000000       0.31250000000000000        0.0000000000000000     
  -8.4375000000000000       0.31250000000000000        0.0000000000000000     
  -8.1250000000000018       0.31250000000000000        0.0000000000000000     
  -7.8125000000000009       0.31250000000000006        0.0000000000000000     
  -7.5000000000000009       0.31250000000000000        0.0000000000000000     
  -8.7500000000000000       0.46875000000000000        0.0000000000000000     
  -8.4375000000000018       0.46875000000000000        0.0000000000000000     
  -8.1250000000000000       0.46875000000000000        0.0000000000000000     
  -7.8125000000000000       0.46875000000000000        0.0000000000000000     
  -7.5000000000000009       0.46875000000000006        0.0000000000000000     
  -8.7500000000000018       0.62500000000000022        0.0000000000000000     
  -8.4375000000000018       0.62500000000000011        0.0000000000000000     
  -8.1250000000000000       0.62499999999999989        0.0000000000000000     
  -7.8125000000000000       0.62500000000000011        0.0000000000000000     
  -7.5000000000000009       0.62500000000000011        0.0000000000000000     
  -7.5000000000000018        0.0000000000000000        0.0000000000000000     
  -7.1875000000000000        0.0000000000000000        0.0000000000000000     
  -6.8750000000000009        0.0000000000000000        0.0000000000000000     
  -6.5625000000000000        0.0000000000000000        0.0000000000000000     
  -6.2500000000000000        0.0000000000000000        0.0000000000000000     
  -7.5000000000000000       0.15625000000000000        0.0000000000000000     
  -7.1875000000000000       0.15625000000000000        0.0000000000000000     
  -6.8750000000000009       0.15625000000000003        0.0000000000000000     
  -6.5625000000000009       0.15625000000000003        0.0000000000000000     
  -6.2500000000000000       0.15625000000000000        0.0000000000000000     
  -7.5000000000000009       0.31250000000000000        0.0000000000000000     
  -7.1875000000000000       0.31250000000000000        0.0000000000000000     
  -6.8750000000000009       0.31250000000000011        0.0000000000000000     
  -6.5624999999999991       0.31249999999999989        0.0000000000000000     
  -6.2500000000000009       0.31250000000000000        0.0000000000000000     
  -7.5000000000000009       0.46875000000000006        0.0000000000000000     
  -7.1875000000000000       0.46875000000000000        0.0000000000000000     
  -6.8749999999999991       0.46874999999999994        0.0000000000000000     
  -6.5625000000000009       0.46875000000000000        0.0000000000000000     
  -6.2500000000000009       0.46875000000000006        0.0000000000000000     
  -7.5000000000000009       0.62500000000000011        0.0000000000000000     
  -7.1875000000000018       0.62500000000000022        0.0000000000000000     
  -6.8750000000000009       0.62500000000000000        0.0000000000000000     
  -6.5625000000000000       0.62500000000000000        0.0000000000000000     
  -6.2500000000000009       0.62500000000000011        0.0000000000000000     
  -6.2500000000000000        0.0000000000000000        0.0000000000000000     
  -5.9375000000000000        0.0000000000000000        0.0000000000000000     
  -5.6250000000000009        0.0000000000000000        0.0000000000000000     
  -5.3125000000000009        0.0000000000000000        0.0000000000000000     
  -5.0000000000000009        0.0000000000000000        0.0000000000000000     
  -6.2500000000000000       0.15625000000000000        0.0000000000000000     
  -5.9375000000000000       0.15625000000000000        0.0000000000000000     
  -5.6250000000000009       0.15625000000000003        0.0000000000000000     
  -5.3125000000000000       0.15625000000000003        0.0000000000000000     
  -5.0000000000000000       0.15625000000000000        0.0000000000000000     
  -6.2500000000000009       0.31250000000000000        0.0000000000000000     
  -5.9375000000000000       0.31250000000000000        0.0000000000000000     
  -5.6250000000000018       0.31250000000000011        0.0000000000000000     
  -5.3124999999999991       0.31249999999999989        0.0000000000000000     
  -5.0000000000000000       0.31250000000000000        0.0000000000000000     
  -6.2500000000000009       0.46875000000000006        0.0000000000000000     
  -5.9375000000000009       0.46875000000000000        0.0000000000000000     
  -5.6249999999999991       0.46874999999999994        0.0000000000000000     
  -5.3125000000000000       0.46875000000000000        0.0000000000000000     
  -5.0000000000000000       0.46875000000000006        0.0000000000000000     
  -6.2500000000000009       0.62500000000000011        0.0000000000000000     
  -5.9375000000000009       0.62500000000000022        0.0000000000000000     
  -5.6250000000000000       0.62500000000000000        0.0000000000000000     
  -5.3125000000000000       0.62500000000000000        0.0000000000000000     
  -5.0000000000000009       0.62500000000000011        0.0000000000000000     
  -5.0000000000000009        0.0000000000000000        0.0000000000000000     
  -4.6875000000000000        0.0000000000000000        0.0000000000000000     
  -4.3750000000000009        0.0000000000000000        0.0000000000000000     
  -4.0625000000000009        0.0000000000000000        0.0000000000000000     
  -3.7500000000000004        0.0000000000000000        0.0000000000000000     
  -5.0000000000000000       0.15625000000000000        0.0000000000000000     
  -4.6875000000000000       0.15625000000000000        0.0000000000000000     
  -4.3750000000000009       0.15625000000000003        0.0000000000000000     
  -4.0625000000000000       0.15625000000000003        0.0000000000000000     
  -3.7500000000000000       0.15625000000000000        0.0000000000000000     
  -5.0000000000000000       0.31250000000000000        0.0000000000000000     
  -4.6875000000000000       0.31250000000000000        0.0000000000000000     
  -4.3750000000000009       0.31250000000000011        0.0000000000000000     
  -4.0624999999999991       0.31249999999999989        0.0000000000000000     
  -3.7500000000000009       0.31250000000000000        0.0000000000000000     
  -5.0000000000000000       0.46875000000000006        0.0000000000000000     
  -4.6875000000000000       0.46875000000000000        0.0000000000000000     
  -4.3749999999999991       0.46874999999999994        0.0000000000000000     
  -4.0625000000000000       0.46875000000000000        0.0000000000000000     
  -3.7500000000000004       0.46875000000000006        0.0000000000000000     
  -5.0000000000000009       0.62500000000000011        0.0000000000000000     
  -4.6875000000000009       0.62500000000000022        0.0000000000000000     
  -4.3750000000000000       0.62500000000000000        0.0000000000000000     
[...]
 <PointData>
 <DataArray  type="Float64" Name="disp" NumberOfComponents="3" format="ascii">
   0.0000000000000000        0.0000000000000000        0.0000000000000000     
   6.7042729783247960E-003   4.0485379802339917E-003   0.0000000000000000     
   1.2128636998222428E-002   6.8479588095881911E-003   0.0000000000000000     
   1.6708159342984922E-002   8.6566071075791506E-003   0.0000000000000000     
   2.0877907295904313E-002   9.7328274937234210E-003   0.0000000000000000     
   0.0000000000000000        0.0000000000000000        0.0000000000000000     
   5.6597295390725475E-003   3.3855565919470127E-003   0.0000000000000000     
   1.0906286568059920E-002   5.9757312953514097E-003   0.0000000000000000     
   1.5803880503125908E-002   7.8432661865747138E-003   0.0000000000000000     
   2.0416720760434291E-002   9.0609033419784442E-003   0.0000000000000000     
   0.0000000000000000        0.0000000000000000        0.0000000000000000     
   5.0340049738472770E-003   2.8481293955951183E-003   0.0000000000000000     
   1.0098851246552130E-002   5.2127490983021104E-003   0.0000000000000000     
   1.5087855867988388E-002   7.0529847853769380E-003   0.0000000000000000     
   1.9894335888029881E-002   8.3279621340755575E-003   0.0000000000000000     
   0.0000000000000000        0.0000000000000000        0.0000000000000000     
   4.6961119397736948E-003   2.4139541139396132E-003   0.0000000000000000     
   9.5872200889208573E-003   4.5474292941033029E-003   0.0000000000000000     
   1.4524959675086635E-002   6.2991449576490794E-003   0.0000000000000000     
   1.9360965925916185E-002   7.5678205217349533E-003   0.0000000000000000     
   0.0000000000000000        0.0000000000000000        0.0000000000000000     
   4.5150630939765112E-003   2.0607284697418044E-003   0.0000000000000000     
   9.2522821503879093E-003   3.9681889584179935E-003   0.0000000000000000     
   1.4080066161934928E-002   5.5951287570543918E-003   0.0000000000000000     
   1.8866824121318317E-002   6.8142951566768240E-003   0.0000000000000000     
   2.0877907295904313E-002   9.7328274937234210E-003   0.0000000000000000     
   2.4997090256607433E-002   1.0311234783837903E-002   0.0000000000000000     
   2.9121486090060406E-002   1.0531524578940894E-002   0.0000000000000000     
   3.3231014777564148E-002   1.0509662676351030E-002   0.0000000000000000     
   3.7305596300419588E-002   1.0361614873386956E-002   0.0000000000000000     
   2.0416720760434291E-002   9.0609033419784442E-003   0.0000000000000000     
   2.4807222023729262E-002   9.7143839634672123E-003   0.0000000000000000     
   2.9030620047076652E-002   9.9414457551179718E-003   0.0000000000000000     
   3.3140355852122654E-002   9.8928255465507708E-003   0.0000000000000000     
   3.7189870460513509E-002   9.7192601673856474E-003   0.0000000000000000     
   1.9894335888029881E-002   8.3279621340755575E-003   0.0000000000000000     
   2.4440594264552029E-002   9.0300610734803700E-003   0.0000000000000000     
   2.8764877587436611E-002   9.2846785399795396E-003   0.0000000000000000     
   3.2934418354567001E-002   9.2504657217876620E-003   0.0000000000000000     
   3.7016449063826555E-002   9.0860738071193471E-003   0.0000000000000000     
   1.9360965925916185E-002   7.5678205217349533E-003   0.0000000000000000     
   2.3979273358305082E-002   8.2938699818857122E-003   0.0000000000000000     
   2.8393513646150656E-002   8.5844856470932238E-003   0.0000000000000000     
   3.2649717752600671E-002   8.5885544047161373E-003   0.0000000000000000     
   3.6793916640802893E-002   8.4549631421131036E-003   0.0000000000000000     
   1.8866824121318317E-002   6.8142951566768240E-003   0.0000000000000000     
   2.3505325684217798E-002   7.5414145566915581E-003   0.0000000000000000     
   2.7985783158229163E-002   7.8641297900266544E-003   0.0000000000000000     
   3.2322769513927194E-002   7.9130627979906182E-003   0.0000000000000000     
   3.6530857721886703E-002   7.8188355218919547E-003   0.0000000000000000     
   3.7305596300419588E-002   1.0361614873386956E-002   0.0000000000000000     
   4.1321651114066021E-002   1.0179580940325688E-002   0.0000000000000000     
   4.5241601570496365E-002   9.9606965392777767E-003   0.0000000000000000     
   4.9024370495841858E-002   9.6783313053121402E-003   0.0000000000000000     
   5.2628880716233811E-002   9.3058548734977018E-003   0.0000000000000000     
   3.7189870460513509E-002   9.7192601673856474E-003   0.0000000000000000     
   4.1213977834587995E-002   9.5399651747656525E-003   0.0000000000000000     
   4.5172983699455112E-002   9.3480710359258538E-003   0.0000000000000000     
   4.9008566720916392E-002   9.1051869456243231E-003   0.0000000000000000     
   5.2662405564773418E-002   8.7729220986191292E-003   0.0000000000000000     
   3.7016449063826555E-002   9.0860738071193471E-003   0.0000000000000000     
   4.1058213084982996E-002   8.9174803646821389E-003   0.0000000000000000     
   4.5026997275341471E-002   8.7399684851553923E-003   0.0000000000000000     
   4.8870099364091389E-002   8.5161476397113932E-003   0.0000000000000000     
   5.2534817080422298E-002   8.2086272995224550E-003   0.0000000000000000     
   3.6793916640802893E-002   8.4549631421131036E-003   0.0000000000000000     
   4.0858565788339497E-002   8.3029646543084992E-003   0.0000000000000000     
   4.4821818730530497E-002   8.1332753669896996E-003   0.0000000000000000     
   4.8648253517130334E-002   7.9169776135098093E-003   0.0000000000000000     
   5.2302448197893432E-002   7.6251537272219311E-003   0.0000000000000000     
   3.6530857721886703E-002   7.8188355218919547E-003   0.0000000000000000     
   4.0619244867745964E-002   7.6872561878780846E-003   0.0000000000000000     
   4.4575624497397333E-002   7.5248781614520970E-003   0.0000000000000000     
   4.8382314271796678E-002   7.3134410929560018E-003   0.0000000000000000     
   5.2021631851899848E-002   7.0346846327318056E-003   0.0000000000000000     
   5.2628880716233811E-002   9.3058548734977018E-003   0.0000000000000000     
   5.6022614644864605E-002   8.8259164747527489E-003   0.0000000000000000     
   5.9207293043171363E-002   8.2582837233930208E-003   0.0000000000000000     
   6.2193196259652285E-002   7.6320038295836102E-003   0.0000000000000000     
   6.4990604642805594E-002   6.9761240034896151E-003   0.0000000000000000     
   5.2662405564773418E-002   8.7729220986191292E-003   0.0000000000000000     
   5.6088388879224592E-002   8.3249506612727078E-003   0.0000000000000000     
   5.9289245242055852E-002   7.7832066863649085E-003   0.0000000000000000     
   6.2279913213449938E-002   7.1816891982799478E-003   0.0000000000000000     
   6.5075331353589713E-002   6.5543972214020321E-003   0.0000000000000000     
   5.2534817080422298E-002   8.2086272995224550E-003   0.0000000000000000     
   5.5978750820782304E-002   7.7915702109347335E-003   0.0000000000000000     
   5.9200711650654401E-002   7.2853522209898672E-003   0.0000000000000000     
   6.2209813302780158E-002   6.7219024519033612E-003   0.0000000000000000     
   6.5015169509901286E-002   6.1331500258907231E-003   0.0000000000000000     
   5.2302448197893432E-002   7.6251537272219311E-003   0.0000000000000000     
   5.5754632544894246E-002   7.2380401524380529E-003   0.0000000000000000     
   5.8997643219487299E-002   6.7724897773056804E-003   0.0000000000000000     
   6.2029968605347138E-002   6.2545096009312059E-003   0.0000000000000000     
   6.4850097086148251E-002   5.7101066224210118E-003   0.0000000000000000     
   5.2021631851899848E-002   7.0346846327318056E-003   0.0000000000000000     
   5.5476966126916938E-002   6.6766255144818897E-003   0.0000000000000000     
   5.8735990899074914E-002   6.2523888053501410E-003   0.0000000000000000     
   6.1787451198855037E-002   5.7813766558408291E-003   0.0000000000000000     
   6.4620092056738535E-002   5.2829912164582210E-003   0.0000000000000000     
   6.4990604642805594E-002   6.9761240034896151E-003   0.0000000000000000     
   6.7600400508978947E-002   6.3124338079733602E-003   0.0000000000000000     
   6.9985874045917718E-002   5.6336922166860684E-003   0.0000000000000000     
   7.2100917409216689E-002   4.9254005559761860E-003   0.0000000000000000     
   7.3899422754470617E-002   4.1730601521921618E-003   0.0000000000000000     
   6.5075331353589713E-002   6.5543972214020321E-003   0.0000000000000000     
   6.7681052644994869E-002   5.9267926737087400E-003   0.0000000000000000     
   7.0065087759533004E-002   5.2901890475510905E-003   0.0000000000000000     
   7.2186061791408601E-002   4.6273627288734680E-003   0.0000000000000000     
   7.4002599834826238E-002   3.9210901036202568E-003   0.0000000000000000     
   6.5015169509901286E-002   6.1331500258907231E-003   0.0000000000000000     
   6.7618854607512255E-002   5.5430796822942378E-003   0.0000000000000000     
   6.9994785342119101E-002   4.9438986289633089E-003   0.0000000000000000     
   7.2109839062980699E-002   4.3198696908741258E-003   0.0000000000000000     
   7.3930893119356009E-002   3.6552556930028756E-003   0.0000000000000000     
   6.4850097086148251E-002   5.7101066224210118E-003   0.0000000000000000     
   6.7452783821713436E-002   5.1589340537917311E-003   0.0000000000000000     
   6.9817851076458506E-002   4.5952299587009764E-003   0.0000000000000000     
   7.1921387890947569E-002   4.0068786137166107E-003   0.0000000000000000     
   7.3739483305744660E-002   3.3817642954064855E-003   0.0000000000000000     
   6.4620092056738535E-002   5.2829912164582210E-003   0.0000000000000000     
   6.7221817712780782E-002   4.7719950082631040E-003   0.0000000000000000     
   6.9577169245333803E-002   4.2445920345423518E-003   0.0000000000000000     
   7.1669846942323784E-002   3.6923466691393693E-003   0.0000000000000000     
   7.3483551091676980E-002   3.1068232858975577E-003   0.0000000000000000     
   7.3899422754470617E-002   4.1730601521921618E-003   0.0000000000000000     
   7.5352523883098460E-002   3.3641959258320329E-003   0.0000000000000000     
   7.6500321179815575E-002   2.4944271739922004E-003   0.0000000000000000     
   7.7400156675161411E-002   1.5613967879186486E-003   0.0000000000000000     
   7.8109372399675497E-002   5.6274765885736889E-004   0.0000000000000000     
   7.4002599834826238E-002   3.9210901036202568E-003   0.0000000000000000     
   7.5488359355023946E-002   3.1564937421892500E-003   0.0000000000000000     
   7.6677127301374048E-002   2.3280809527918798E-003   0.0000000000000000     
   7.7617722994282282E-002   1.4327052280929909E-003   0.0000000000000000     
   7.8358965754154533E-002   4.6722006075742585E-004   0.0000000000000000     
   7.3930893119356009E-002   3.6552556930028756E-003   0.0000000000000000     
   7.5437059618615923E-002   2.9358504823851603E-003   0.0000000000000000     
   7.6656389700579822E-002   2.1535719942942541E-003   0.0000000000000000     
   7.7629169263179004E-002   1.3018691860628450E-003   0.0000000000000000     
   7.8395684204344965E-002   3.7419101502362374E-004   0.0000000000000000     
   7.3739483305744660E-002   3.3817642954064855E-003   0.0000000000000000     
   7.5257570926578574E-002   2.7079884131325574E-003   0.0000000000000000     
   7.6498462619837199E-002   1.9745209074331347E-003   0.0000000000000000     
   7.7494314817073195E-002   1.1705488516406252E-003   0.0000000000000000     
   7.8277283949839058E-002   2.8525931908743356E-004   0.0000000000000000     
   7.3483551091676980E-002   3.1068232858975577E-003   0.0000000000000000     
   7.5008839531616148E-002   2.4786298011442278E-003   0.0000000000000000     
   7.6263700301550580E-002   1.7945483011423344E-003   0.0000000000000000     
   7.7272978991186236E-002   1.0404044146387452E-003   0.0000000000000000     
   7.8061521190229063E-002   2.0202377038032695E-004   0.0000000000000000     
   7.8109372399675497E-002   5.6274765885736889E-004   0.0000000000000000     
   7.8671361881506044E-002  -5.0791396205045018E-004   0.0000000000000000     
   7.9073724639236148E-002  -1.6731283840828138E-003   0.0000000000000000     
   7.9290111689057724E-002  -2.9594725566225270E-003   0.0000000000000000     
   7.9294174047162602E-002  -4.3935234290523924E-003   0.0000000000000000     
   7.8358965754154533E-002   4.6722006075742585E-004   0.0000000000000000     
   7.8938331256163785E-002  -5.7480023767304074E-004   0.0000000000000000     
   7.9347920594551896E-002  -1.7128980801489073E-003   0.0000000000000000     
   7.9568491218327930E-002  -2.9698950607437392E-003   0.0000000000000000     
   7.9580800576500965E-002  -4.3686127735311064E-003   0.0000000000000000     
   7.8395684204344965E-002   3.7419101502362374E-004   0.0000000000000000     
   7.8985645615540306E-002  -6.3730547297333813E-004   0.0000000000000000     
   7.9386465362353165E-002  -1.7456308780084350E-003   0.0000000000000000     
   7.9574980503902853E-002  -2.9650877116446767E-003   0.0000000000000000     
   7.9528028099308895E-002  -4.3099784854450781E-003   0.0000000000000000     
   7.8277283949839058E-002   2.8525931908743356E-004   0.0000000000000000     
   7.8868692705779314E-002  -6.9097331796122994E-004   0.0000000000000000     
   7.9246528796905857E-002  -1.7630254915089294E-003   0.0000000000000000     
   7.9377946191322477E-002  -2.9345863346264263E-003   0.0000000000000000     
   7.9230098857132850E-002  -4.2093449803844753E-003   0.0000000000000000     
   7.8061521190229063E-002   2.0202377038032695E-004   0.0000000000000000     
   7.8642860273024473E-002  -7.3134742264660394E-004   0.0000000000000000     
   7.8985280752475975E-002  -1.7567806344979263E-003   0.0000000000000000     
   7.9045754926126602E-002  -2.8679267549900681E-003   0.0000000000000000     
   7.8781255091519439E-002  -4.0584366739394593E-003   0.0000000000000000     
   7.9294174047162602E-002  -4.3935234290523924E-003   0.0000000000000000     
   7.9053721918362768E-002  -5.9771182028977958E-003   0.0000000000000000     
   7.8513202261950771E-002  -7.6131350882544515E-003   0.0000000000000000     
   7.7611221225839216E-002  -9.1797125473606512E-003   0.0000000000000000     
   7.6286384957940809E-002  -1.0554989042454685E-002   0.0000000000000000     
   7.9580800576500965E-002  -4.3686127735311064E-003   0.0000000000000000     
   7.9341869134737772E-002  -5.9043161013172737E-003   0.0000000000000000     
   7.8713769425335464E-002  -7.4620430818393112E-003   0.0000000000000000     
   7.7534836997249001E-002  -8.8992750415669911E-003   0.0000000000000000     
   7.5643407399433177E-002  -1.0073493306970082E-002   0.0000000000000000     
   7.9528028099308895E-002  -4.3099784854450781E-003   0.0000000000000000     
   7.9194252833938300E-002  -5.7671097877464153E-003   0.0000000000000000     
   7.8409529898148839E-002  -7.2133045139805329E-003   0.0000000000000000     
   7.6981542108545950E-002  -8.4978896363530360E-003   0.0000000000000000     
   7.4717972281735059E-002  -9.4701921270695377E-003   0.0000000000000000     
   7.9230098857132850E-002  -4.2093449803844753E-003   0.0000000000000000     
   7.8745803899986894E-002  -5.5656449053376944E-003   0.0000000000000000     
   7.7770530975718677E-002  -6.8804469599761447E-003   0.0000000000000000     
   7.6125412877708382E-002  -8.0053663382737301E-003   0.0000000000000000     
   7.3631582399336204E-002  -8.7920182342043750E-003   0.0000000000000000     
   7.8781255091519439E-002  -4.0584366739394593E-003   0.0000000000000000     
   7.8131453216906066E-002  -5.3000670972435850E-003   0.0000000000000000     
   7.6966819953372831E-002  -6.4769979951241801E-003   0.0000000000000000     
   7.5140525622714657E-002  -7.4515151538840328E-003   0.0000000000000000     
   7.2505740546726483E-002  -8.0859043598259361E-003   0.0000000000000000     
   0.0000000000000000        0.0000000000000000        0.0000000000000000     
   4.5150630939765112E-003   2.0607284697418044E-003   0.0000000000000000     
   9.2522821503879093E-003   3.9681889584179935E-003   0.0000000000000000     
   1.4080066161934928E-002   5.5951287570543918E-003   0.0000000000000000     
   1.8866824121318317E-002   6.8142951566768240E-003   0.0000000000000000     
   0.0000000000000000        0.0000000000000000        0.0000000000000000     
   4.3815679050128124E-003   1.7679855824078387E-003   0.0000000000000000     
   8.9937448532710854E-003   3.4632503307626089E-003   0.0000000000000000     
   1.3721936450517584E-002   4.9506761270242420E-003   0.0000000000000000     
   1.8451548302495083E-002   6.0951448531526720E-003   0.0000000000000000     
   0.0000000000000000        0.0000000000000000        0.0000000000000000     
   4.2731230871692069E-003   1.5226001579232407E-003   0.0000000000000000     
   8.7865890882721509E-003   3.0200563060672502E-003   0.0000000000000000     
   1.3434879200699053E-002   4.3609585700624554E-003   0.0000000000000000     
   1.8112474621840156E-002   5.4138970755392771E-003   0.0000000000000000     
   0.0000000000000000        0.0000000000000000        0.0000000000000000     
   4.1889221661646683E-003   1.3132822989183779E-003   0.0000000000000000     
   8.6246141131888603E-003   2.6258549431154394E-003   0.0000000000000000     
   1.3207089956813849E-002   3.8175054784409640E-003   0.0000000000000000     
   1.7836363812780916E-002   4.7680214507447340E-003   0.0000000000000000     
   0.0000000000000000        0.0000000000000000        0.0000000000000000     
   4.1281586677181809E-003   1.1287421080236183E-003   0.0000000000000000     
   8.5016191858189715E-003   2.2678943006906953E-003   0.0000000000000000     
   1.3026764263196461E-002   3.3118462444317095E-003   0.0000000000000000     
   1.7609976608744731E-002   4.1549876056771367E-003   0.0000000000000000     
   1.8866824121318317E-002   6.8142951566768240E-003   0.0000000000000000     
   2.3505325684217798E-002   7.5414145566915581E-003   0.0000000000000000     
   2.7985783158229163E-002   7.8641297900266544E-003   0.0000000000000000     
   3.2322769513927194E-002   7.9130627979906182E-003   0.0000000000000000     
   3.6530857721886703E-002   7.8188355218919547E-003   0.0000000000000000     
   1.8451548302495083E-002   6.0951448531526720E-003   0.0000000000000000     
   2.3085883309288874E-002   6.8026530189642699E-003   0.0000000000000000     
   2.7599833548354401E-002   7.1436556457011684E-003   0.0000000000000000     
   3.1986188391489624E-002   7.2297223824619450E-003   0.0000000000000000     
   3.6237737210492491E-002   7.1724228783451730E-003   0.0000000000000000     
   1.8112474621840156E-002   5.4138970755392771E-003   0.0000000000000000     
   2.2728341051594502E-002   6.0849610020023252E-003   0.0000000000000000     
   2.7249382199896477E-002   6.4302357444529362E-003   0.0000000000000000     
   3.1656986279189281E-002   6.5433057517666248E-003   0.0000000000000000     
   3.5932541501916146E-002   6.5177554728189117E-003   0.0000000000000000     
   1.7836363812780916E-002   4.7680214507447340E-003   0.0000000000000000     
   2.2425159416980221E-002   5.3900684921622454E-003   0.0000000000000000     
   2.6937038985897430E-002   5.7278245799718408E-003   0.0000000000000000     
   3.1348274356167119E-002   5.8583457777375862E-003   0.0000000000000000     
   3.5635137364423856E-002   5.8586881490235486E-003   0.0000000000000000     
   1.7609976608744731E-002   4.1549876056771367E-003   0.0000000000000000     
   2.2168798911291542E-002   4.7197054758005320E-003   0.0000000000000000     
   2.6665413779399273E-002   5.0403766459477563E-003   0.0000000000000000     
   3.1073163801564028E-002   5.1793753322077526E-003   0.0000000000000000     
   3.5365391566281830E-002   5.1990757506694555E-003   0.0000000000000000     
   3.6530857721886703E-002   7.8188355218919547E-003   0.0000000000000000     
   4.0619244867745964E-002   7.6872561878780846E-003   0.0000000000000000     