 <VTKFile type="UnstructuredGrid"  version="0.1"   >
 <UnstructuredGrid>
 <Piece  NumberOfPoints="           100 "  NumberOfCells="           64 ">
 <Points>
 <DataArray  type="Float64" NumberOfComponents="3"  format="ascii" >
   0.0000000000000000        0.0000000000000000        0.0000000000000000     
  0.12500000000000000        0.0000000000000000        0.0000000000000000     
  0.25000000000000000        0.0000000000000000        0.0000000000000000     
  0.37500000000000000        0.0000000000000000        0.0000000000000000     
  0.50000000000000000        0.0000000000000000        0.0000000000000000     
   0.0000000000000000       0.12500000000000000        0.0000000000000000     
  0.12500000000000000       0.12500000000000000        0.0000000000000000     
  0.25000000000000000       0.12500000000000000        0.0000000000000000     
  0.37500000000000000       0.12500000000000000        0.0000000000000000     
  0.50000000000000000       0.12500000000000000        0.0000000000000000     
   0.0000000000000000       0.25000000000000000        0.0000000000000000     
  0.12500000000000000       0.25000000000000000        0.0000000000000000     
  0.25000000000000000       0.25000000000000000        0.0000000000000000     
  0.37500000000000000       0.25000000000000000        0.0000000000000000     
  0.50000000000000000       0.25000000000000000        0.0000000000000000     
   0.0000000000000000       0.37500000000000000        0.0000000000000000     
  0.12500000000000000       0.37500000000000000        0.0000000000000000     
  0.25000000000000000       0.37500000000000000        0.0000000000000000     
  0.37500000000000000       0.37500000000000000        0.0000000000000000     
  0.50000000000000000       0.37500000000000000        0.0000000000000000     
   0.0000000000000000       0.50000000000000000        0.0000000000000000     
  0.12500000000000000       0.50000000000000000        0.0000000000000000     
  0.25000000000000000       0.50000000000000000        0.0000000000000000     
  0.37500000000000000       0.50000000000000000        0.0000000000000000     
  0.50000000000000000       0.50000000000000000        0.0000000000000000     
  0.50000000000000000        0.0000000000000000        0.0000000000000000     
  0.62500000000000000        0.0000000000000000        0.0000000000000000     
  0.75000000000000000        0.0000000000000000        0.0000000000000000     
  0.87500000000000000        0.0000000000000000        0.0000000000000000     
   1.0000000000000000        0.0000000000000000        0.0000000000000000     
  0.50000000000000000       0.12500000000000000        0.0000000000000000     
  0.62500000000000000       0.12500000000000000        0.0000000000000000     
  0.75000000000000000       0.12500000000000000        0.0000000000000000     
  0.87500000000000000       0.12500000000000000        0.0000000000000000     
   1.0000000000000000       0.12500000000000000        0.0000000000000000     
  0.50000000000000000       0.25000000000000000        0.0000000000000000     
  0.62500000000000000       0.25000000000000000        0.0000000000000000     
  0.75000000000000000       0.25000000000000000        0.0000000000000000     
  0.87500000000000000       0.25000000000000000        0.0000000000000000     
   1.0000000000000000       0.25000000000000000        0.0000000000000000     
  0.50000000000000000       0.37500000000000000        0.0000000000000000     
  0.62500000000000000       0.37500000000000000        0.0000000000000000     
  0.75000000000000000       0.37500000000000000        0.0000000000000000     
  0.87500000000000000       0.37500000000000000        0.0000000000000000     
   1.0000000000000000       0.37500000000000000        0.0000000000000000     
  0.50000000000000000       0.50000000000000000        0.0000000000000000     
  0.62500000000000000       0.50000000000000000        0.0000000000000000     
  0.75000000000000000       0.50000000000000000        0.0000000000000000     
  0.87500000000000000       0.50000000000000000        0.0000000000000000     
   1.0000000000000000       0.50000000000000000        0.0000000000000000     
   0.0000000000000000       0.50000000000000000        0.0000000000000000     
  0.12500000000000000       0.50000000000000000        0.0000000000000000     
  0.25000000000000000       0.50000000000000000        0.0000000000000000     
  0.37500000000000000       0.50000000000000000        0.0000000000000000     
  0.50000000000000000       0.50000000000000000        0.0000000000000000     
   0.0000000000000000       0.62500000000000000        0.0000000000000000     
  0.12500000000000000       0.62500000000000000        0.0000000000000000     
  0.25000000000000000       0.62500000000000000        0.0000000000000000     
  0.37500000000000000       0.62500000000000000        0.0000000000000000     
  0.50000000000000000       0.62500000000000000        0.0000000000000000     
   0.0000000000000000       0.75000000000000000        0.0000000000000000     
  0.12500000000000000       0.75000000000000000        0.0000000000000000     
  0.25000000000000000       0.75000000000000000        0.0000000000000000     
  0.37500000000000000       0.75000000000000000        0.0000000000000000     
  0.50000000000000000       0.75000000000000000        0.0000000000000000     
   0.0000000000000000       0.87500000000000000        0.0000000000000000     
  0.12500000000000000       0.87500000000000000        0.0000000000000000     
  0.25000000000000000       0.87500000000000000        0.0000000000000000     
  0.37500000000000000       0.87500000000000000        0.0000000000000000     
  0.50000000000000000       0.87500000000000000        0.0000000000000000     
   0.0000000000000000        1.0000000000000000        0.0000000000000000     
  0.12500000000000000        1.0000000000000000        0.0000000000000000     
  0.25000000000000000        1.0000000000000000        0.0000000000000000     
  0.37500000000000000        1.0000000000000000        0.0000000000000000     
  0.50000000000000000        1.0000000000000000        0.0000000000000000     
  0.50000000000000000       0.50000000000000000        0.0000000000000000     
  0.62500000000000000       0.50000000000000000        0.0000000000000000     
  0.75000000000000000       0.50000000000000000        0.0000000000000000     
  0.87500000000000000       0.50000000000000000        0.0000000000000000     
   1.0000000000000000       0.50000000000000000        0.0000000000000000     
  0.50000000000000000       0.62500000000000000        0.0000000000000000     
  0.62500000000000000       0.62500000000000000        0.0000000000000000     
  0.75000000000000000       0.62500000000000000        0.0000000000000000     
  0.87500000000000000       0.62500000000000000        0.0000000000000000     
   1.0000000000000000       0.62500000000000000        0.0000000000000000     
  0.50000000000000000       0.75000000000000000        0.0000000000000000     
  0.62500000000000000       0.75000000000000000        0.0000000000000000     
  0.75000000000000000       0.75000000000000000        0.0000000000000000     
  0.87500000000000000       0.75000000000000000        0.0000000000000000     
   1.0000000000000000       0.75000000000000000        0.0000000000000000     
  0.50000000000000000       0.87500000000000000        0.0000000000000000     
  0.62500000000000000       0.87500000000000000        0.0000000000000000     
  0.75000000000000000       0.87500000000000000        0.0000000000000000     
  0.87500000000000000       0.87500000000000000        0.0000000000000000     
   1.0000000000000000       0.87500000000000000        0.0000000000000000     
  0.50000000000000000        1.0000000000000000        0.0000000000000000     
  0.62500000000000000        1.0000000000000000        0.0000000000000000     
  0.75000000000000000        1.0000000000000000        0.0000000000000000     
  0.87500000000000000        1.0000000000000000        0.0000000000000000     
   1.0000000000000000        1.0000000000000000        0.0000000000000000     
 </DataArray>
 </Points>
 <Cells>
 <DataArray  type="Int32"  Name="connectivity"  format="ascii">
           0           1           6           5
           1           2           7           6
           2           3           8           7
           3           4           9           8
           5           6          11          10
           6           7          12          11
           7           8          13          12
           8           9          14          13
          10          11          16          15
          11          12          17          16
          12          13          18          17
          13          14          19          18
          15          16          21          20
          16          17          22          21
          17          18          23          22
          18          19          24          23
          25          26          31          30
          26          27          32          31
          27          28          33          32
          28          29          34          33
          30          31          36          35
          31          32          37          36
          32          33          38          37
          33          34          39          38
          35          36          41          40
          36          37          42          41
          37          38          43          42
          38          39          44          43
          40          41          46          45
          41          42          47          46
          42          43          48          47
          43          44          49          48
          50          51          56          55
          51          52          57          56
          52          53          58          57
          53          54          59          58
          55          56          61          60
          56          57          62          61
          57          58          63          62
          58          59          64          63
          60          61          66          65
          61          62          67          66
          62          63          68          67
          63          64          69          68
          65          66          71          70
          66          67          72          71
          67          68          73          72
          68          69          74          73
          75          76          81          80
          76          77          82          81
          77          78          83          82
          78          79          84          83
          80          81          86          85
          81          82          87          86
          82          83          88          87
          83          84          89          88
          85          86          91          90
          86          87          92          91
          87          88          93          92
          88          89          94          93
          90          91          96          95
          91          92          97          96
          92          93          98          97
          93          94          99          98
 </DataArray>
 <DataArray  type="Int32"  Name="offsets"  format="ascii"> 
           4
           8
          12
          16
          20
          24
          28
          32
          36
          40
          44
          48
          52
          56
          60
          64
          68
          72
          76
          80
          84
          88
          92
          96
         100
         104
         108
         112
         116
         120
         124
         128
         132
         136
         140
         144
         148
         152
         156
         160
         164
         168
         172
         176
         180
         184
         188
         192
         196
         200
         204
         208
         212
         216
         220
         224
         228
         232
         236
         240
         244
         248
         252
         256
 </DataArray>
 <DataArray  type="UInt8"  Name="types"  format="ascii">
 9
 9
 9
 9
 9
 9
 9
 9
 9
 9
 9
 9
 9
 9
 9
 9
 9
 9
 9
 9
 9
 9
 9
 9
 9
 9
 9
 9
 9
 9
 9
 9
 9
 9
 9
 9
 9
 9
 9
 9
 9
 9
 9
 9
 9
 9
 9
 9
 9
 9
 9
 9
 9
 9
 9
 9
 9
 9
 9
 9
 9
 9
 9
 9
 </DataArray>
 </Cells> 
 <PointData>
 <DataArray  type="Float64" Name="disp" NumberOfComponents="3" format="ascii">
   0.0000000000000000        0.0000000000000000        0.0000000000000000     
   1.9112088702995446E-002   1.1562971654264016E-002   0.0000000000000000     
   3.6273433951889866E-002   2.5764195980183945E-002   0.0000000000000000     
   5.1484035746683282E-002   4.2603672977759792E-002   0.0000000000000000     
   6.4743894087375686E-002   6.2081402646991551E-002   0.0000000000000000     
   0.0000000000000000        0.0000000000000000        0.0000000000000000     
   1.2694088032616693E-002   9.3128483554428959E-003   0.0000000000000000     
   2.4522025980515096E-002   2.2153417053805483E-002   0.0000000000000000     
   3.5483813843695207E-002   3.8521706095087753E-002   0.0000000000000000     
   4.5579451622157027E-002   5.8417715479289714E-002   0.0000000000000000     
   0.0000000000000000        0.0000000000000000        0.0000000000000000     
   7.3694063586578710E-003   7.7056174277135257E-003   0.0000000000000000     
   1.4559317664741859E-002   1.9574289249249435E-002   0.0000000000000000     
   2.1569733918251968E-002   3.5606015464607718E-002   0.0000000000000000     
   2.8400655119188198E-002   5.5800796073788385E-002   0.0000000000000000     
   0.0000000000000000        0.0000000000000000        0.0000000000000000     
   3.1380436811189755E-003   6.7412788710759057E-003   0.0000000000000000     
   6.3853090045701642E-003   1.8026812566515806E-002   0.0000000000000000     
   9.7417959703535676E-003   3.3856601086319695E-002   0.0000000000000000     
   1.3207504578469181E-002   5.4230644430487578E-002   0.0000000000000000     
   0.0000000000000000        0.0000000000000000        0.0000000000000000     
   8.2399365108898337E-018   6.4198326855300384E-003   0.0000000000000000     
   7.8062556418956319E-018   1.7510987005604599E-002   0.0000000000000000     
  -4.3368086899420177E-019   3.3273462960223682E-002   0.0000000000000000     
  -1.5612511283791264E-017   5.3707260549387285E-002   0.0000000000000000     
   6.4743894087375686E-002   6.2081402646991551E-002   0.0000000000000000     
   7.6351492826144396E-002   8.4505035922065708E-002   0.0000000000000000     
   8.6605315815166783E-002  0.11018222373716874        0.0000000000000000     
   9.5505363054442807E-002  0.13911296609230064        0.0000000000000000     
  0.10305163454397251       0.17129726298746140        0.0000000000000000     
   4.5579451622157027E-002   5.8417715479289714E-002   0.0000000000000000     
   5.4575568396992416E-002   8.1435896081121562E-002   0.0000000000000000     
   6.2238793249293246E-002  0.10717069877529346        0.0000000000000000     
   6.8569126179059525E-002  0.13562212356180545        0.0000000000000000     
   7.3566567186291204E-002  0.16679017044065753        0.0000000000000000     
   2.8400655119188198E-002   5.5800796073788385E-002   0.0000000000000000     
   3.4591678116251030E-002   7.9243653337589995E-002   0.0000000000000000     
   3.9682399758140953E-002  0.10501960951681111        0.0000000000000000     
   4.3672820044857966E-002  0.13312866461145170        0.0000000000000000     
   4.6562938976402075E-002  0.16357081862151179        0.0000000000000000     
   1.3207504578469181E-002   5.4230644430487578E-002   0.0000000000000000     
   1.6399821983920218E-002   7.7928307691471035E-002   0.0000000000000000     
   1.8936135341709882E-002  0.10372895596172163        0.0000000000000000     
   2.0816444651838177E-002  0.13163258924123938        0.0000000000000000     
   2.2040749914305095E-002  0.16163920753002425        0.0000000000000000     
  -1.5612511283791264E-017   5.3707260549387285E-002   0.0000000000000000     
  -1.1275702593849246E-017   7.7489859142764655E-002   0.0000000000000000     
   4.1199682554449168E-017  0.10329873811002506        0.0000000000000000     
   1.3520001090894240E-016  0.13113389745116846        0.0000000000000000     
   2.8449465006019636E-016  0.16099533716619491        0.0000000000000000     
   0.0000000000000000        0.0000000000000000        0.0000000000000000     
   8.2399365108898337E-018   6.4198326855300384E-003   0.0000000000000000     
   7.8062556418956319E-018   1.7510987005604599E-002   0.0000000000000000     
  -4.3368086899420177E-019   3.3273462960223682E-002   0.0000000000000000     
  -1.5612511283791264E-017   5.3707260549387285E-002   0.0000000000000000     
   0.0000000000000000        0.0000000000000000        0.0000000000000000     
  -3.1380436811189556E-003   6.7412788710759178E-003   0.0000000000000000     
  -6.3853090045701416E-003   1.8026812566515810E-002   0.0000000000000000     
  -9.7417959703535537E-003   3.3856601086319681E-002   0.0000000000000000     
  -1.3207504578469198E-002   5.4230644430487515E-002   0.0000000000000000     
   0.0000000000000000        0.0000000000000000        0.0000000000000000     
  -7.3694063586578415E-003   7.7056174277135439E-003   0.0000000000000000     
  -1.4559317664741816E-002   1.9574289249249435E-002   0.0000000000000000     
  -2.1569733918251923E-002   3.5606015464607677E-002   0.0000000000000000     
  -2.8400655119188160E-002   5.5800796073788274E-002   0.0000000000000000     
   0.0000000000000000        0.0000000000000000        0.0000000000000000     
  -1.2694088032616648E-002   9.3128483554429133E-003   0.0000000000000000     
  -2.4522025980515016E-002   2.2153417053805472E-002   0.0000000000000000     
  -3.5483813843695096E-002   3.8521706095087697E-002   0.0000000000000000     
  -4.5579451622156909E-002   5.8417715479289561E-002   0.0000000000000000     
   0.0000000000000000        0.0000000000000000        0.0000000000000000     
  -1.9112088702995376E-002   1.1562971654264027E-002   0.0000000000000000     
  -3.6273433951889741E-002   2.5764195980183931E-002   0.0000000000000000     
  -5.1484035746683102E-002   4.2603672977759716E-002   0.0000000000000000     
  -6.4743894087375450E-002   6.2081402646991378E-002   0.0000000000000000     
  -1.5612511283791264E-017   5.3707260549387285E-002   0.0000000000000000     
  -1.1275702593849246E-017   7.7489859142764655E-002   0.0000000000000000     
   4.1199682554449168E-017  0.10329873811002506        0.0000000000000000     
   1.3520001090894240E-016  0.13113389745116846        0.0000000000000000     
   2.8449465006019636E-016  0.16099533716619491        0.0000000000000000     
  -1.3207504578469198E-002   5.4230644430487515E-002   0.0000000000000000     
  -1.6399821983920218E-002   7.7928307691470897E-002   0.0000000000000000     
  -1.8936135341709782E-002  0.10372895596172139        0.0000000000000000     
  -2.0816444651837889E-002  0.13163258924123902        0.0000000000000000     
  -2.2040749914304516E-002  0.16163920753002381        0.0000000000000000     
  -2.8400655119188160E-002   5.5800796073788274E-002   0.0000000000000000     
  -3.4591678116250975E-002   7.9243653337589773E-002   0.0000000000000000     
  -3.9682399758140786E-002  0.10501960951681072        0.0000000000000000     
  -4.3672820044857619E-002  0.13312866461145115        0.0000000000000000     
  -4.6562938976401458E-002  0.16357081862151102        0.0000000000000000     
  -4.5579451622156909E-002   5.8417715479289561E-002   0.0000000000000000     
  -5.4575568396992270E-002   8.1435896081121284E-002   0.0000000000000000     
  -6.2238793249292990E-002  0.10717069877529301        0.0000000000000000     
  -6.8569126179059067E-002  0.13562212356180478        0.0000000000000000     
  -7.3566567186290538E-002  0.16679017044065655        0.0000000000000000     
  -6.4743894087375450E-002   6.2081402646991378E-002   0.0000000000000000     
  -7.6351492826144104E-002   8.4505035922065402E-002   0.0000000000000000     
  -8.6605315815166367E-002  0.11018222373716825        0.0000000000000000     
  -9.5505363054442238E-002  0.13911296609229992        0.0000000000000000     
 -0.10305163454397175       0.17129726298746042        0.0000000000000000     
 </DataArray>
 <DataArray  type="Float64" Name="stress" NumberOfComponents="3" format="ascii">
   10595583523.540722        3178675057.0622163        1891171443.4035800     
   9159690266.7084846        1513553727.5163867        1092450059.3544476     
   7884655213.5333719        384626410.16096687        530694066.93643248     
   6770478364.0153790       -208106895.00404739        205903466.14953381     
   5817159718.1545105       -264646187.97865295        118078256.99375229     
   6924217885.7015409        2077265365.7104623        1393659357.0430248     
   6162150253.8593273        922880061.78568029        960990896.25857592     
   5520726274.7599535        170640267.00370312        691822287.92278612     
   4999945948.4034224       -179454018.63547182        586153532.03565431     
   4599809274.7897320       -127402795.13184071        643984628.59718156     
   3934498752.4983621        1180349625.7495086        1038293581.0712004     
   3636355205.1248603        473729885.28938067        924761067.48477364     
   3418640759.5799198        35207150.924454451        901262867.16454732     
   3281355415.8635392       -135218577.34527159        967798980.11052108     
   3224499173.9757185       -37547299.519796610        1124369406.3226964     
   1626426123.9311836        487927837.17935508        825074115.48810661     
   1582305120.5050862        166103198.02748901        983760573.03304064     
   1578398667.9932678       -21672938.076779723        1159015804.6617169     
   1614706766.3957291       -75400571.133450389        1350839810.3741362     
   1691229415.7124684        4920298.8574754000        1559232590.1702969     
   6.4051328343759032E-006   1.9215398503127708E-006   754000960.29374349     
   3.2082852857900727E-006   4.4492797724504045E-006   1137989412.9033778     
  -1.5097813109600342E-006   1.2124001436497245E-006   1465081100.4142954     
  -8.3152349474844320E-006  -8.6354915892032274E-006   1735276022.8264976     
  -1.6458903836905222E-005  -2.2944100831710822E-005   1948574180.1399834     
   5817159718.1545105       -264646187.97865295        118078256.99375229     
   5210602732.4837332       -120461607.28709483        254486592.31962910     
   4506942735.8651571       -299953729.75487399        375208242.80922925     
   3706179728.2987800       -803122555.38199162        480243208.46255219     
   2808313709.7845993       -1629968084.1684444        569591489.27959895     
   4599809274.7897320       -127402795.13184071        643984628.59718156     
   3977387301.5719137       -69515629.802597046        645523254.10249710     
   3282138070.1432443       -254385991.84285760        670459516.02997732     
   2514061580.5037231       -682013881.25262487        718793414.37961900     
   1673157832.6533494       -1352399298.0318966        790524949.15142322     
   3224499173.9757185       -37547299.519796610        1124369406.3226964     
   2697881702.5206852       -32456702.759920001        1019360033.5338933     
   2122712725.5917506       -189204457.57971549        976832618.42569292     
   1498992243.1889138       -507790563.97918534        996787160.99809599     
   826720255.31217480       -988215021.95832634        1079223661.2510998     
   1691229415.7124684        4920298.8574754000        1559232590.1702969     
   1372085935.3300478       -9284826.1590667963        1375996930.6138165     
   1028666702.2106758       -104409126.96544749        1294327549.9963784     
   660971716.35435092       -280452603.56166941        1314224448.3179851     
   269000977.76107407       -537415255.94773197        1435687625.5786290     
  -1.6458903836905222E-005  -2.2944100831710822E-005   1948574180.1399834     
   2.5105833163312689E-006  -3.6040309930568698E-005   1715433945.3422675     
   1.9698642900006963E-005  -5.4380721537571849E-005   1622944310.7420332     
   3.3050056510234504E-005  -8.4469118970482751E-005   1671105276.3392808     
   4.6848971588578040E-005  -1.1584140240456990E-004   1859916842.1340108     
   6.4051328343759032E-006   1.9215398503127708E-006   754000960.29374349     
   3.2082852857900727E-006   4.4492797724504045E-006   1137989412.9033778     
  -1.5097813109600342E-006   1.2124001436497245E-006   1465081100.4142954     
  -8.3152349474844320E-006  -8.6354915892032274E-006   1735276022.8264976     
  -1.6458903836905222E-005  -2.2944100831710822E-005   1948574180.1399834     
  -1626426123.9311690       -487927837.17935067        825074115.48811042     
  -1582305120.5050788       -166103198.02748269        983760573.03304243     
  -1578398667.9932699        21672938.076779842        1159015804.6617169     
  -1614706766.3957427        75400571.133436561        1350839810.3741333     
  -1691229415.7124965       -4920298.8575127125        1559232590.1702931     
  -3934498752.4983420       -1180349625.7495027        1038293581.0712065     
  -3636355205.1248484       -473729885.28937602        924761067.48477626     
  -3418640759.5799155       -35207150.924454927        901262867.16454720     
  -3281355415.8635449        135218577.34526086        967798980.11051857     
  -3224499173.9757352        37547299.519771576        1124369406.3226912     
  -6924217885.7015142       -2077265365.7104542        1393659357.0430312     
  -6162150253.8593073       -922880061.78567624        960990896.25857913     
  -5520726274.7599401       -170640267.00370264        691822287.92278659     
  -4999945948.4034147        179454018.63546467        586153532.03565300     
  -4599809274.7897329        127402795.13182545        643984628.59717870     
  -10595583523.540684       -3178675057.0622048        1891171443.4035852     
  -9159690266.7084522       -1513553727.5163822        1092450059.3544509     
  -7884655213.5333433       -384626410.16096497        530694066.93643510     
  -6770478364.0153551        208106895.00404739        205903466.14953625     
  -5817159718.1544895        264646187.97865367        118078256.99375533     
  -1.6458903836905222E-005  -2.2944100831710822E-005   1948574180.1399834     
   2.5105833163312689E-006  -3.6040309930568698E-005   1715433945.3422675     
   1.9698642900006963E-005  -5.4380721537571849E-005   1622944310.7420332     
   3.3050056510234504E-005  -8.4469118970482751E-005   1671105276.3392808     
   4.6848971588578040E-005  -1.1584140240456990E-004   1859916842.1340108     
  -1691229415.7124965       -4920298.8575127125        1559232590.1702931     
  -1372085935.3300369        9284826.1590145230        1375996930.6138101     
  -1028666702.2106267        104409126.96537268        1294327549.9963667     
  -660971716.35426795        280452603.56156099        1314224448.3179662     
  -269000977.76096189        537415255.94757581        1435687625.5786073     
  -3224499173.9757352        37547299.519771576        1124369406.3226912     
  -2697881702.5206642        32456702.759890079        1019360033.5338840     
  -2122712725.5916932        189204457.57967412        976832618.42567766     
  -1498992243.1888211        507790563.97912812        996787160.99807107     
  -826720255.31204998        988215021.95824552        1079223661.2510648     
  -4599809274.7897329        127402795.13182545        643984628.59717870     
  -3977387301.5718827        69515629.802584648        645523254.10249031     
  -3282138070.1431785        254385991.84284925        670459516.02996266     
  -2514061580.5036268        682013881.25261700        718793414.37959361     
  -1673157832.6532197        1352399298.0318904        790524949.15138495     
  -5817159718.1544895        264646187.97865367        118078256.99375533     
  -5210602732.4836874        120461607.28710914        254486592.31962976     
  -4506942735.8650846        299953729.75490403        375208242.80922180     
  -3706179728.2986784        803122555.38203692        480243208.46253443     
  -2808313709.7844739        1629968084.1685085        569591489.27956367     
 </DataArray>
 <DataArray  type="Float64" Name="VM" NumberOfComponents="1" format="ascii">
   9970959660.2560959     
   8712486942.2336197     
   7754223833.4728642     
   6886135178.7118645     
   5957407268.2608929     
   6610843058.1938133     
   5992277385.1551094     
   5567884044.2459621     
   5192268436.2920780     
   4796316711.9091473     
   3932376154.9317479     
   3780264295.4780884     
   3742299807.9452891     
   3746889675.1415596     
   3783185911.9770050     
   2032731860.8375373     
   2274161036.7701092     
   2560463535.0511503     
   2865138317.7510967     
   3185212489.3792634     
   1305967972.1844873     
   1971055481.6241279     
   2537594903.1264796     
   3005586236.6915445     
   3375029482.3193212     
   5957407268.2608929     
   5290260833.9946737     
   4709216816.4347582     
   4248433966.6912074     
   4011756094.1852789     
   4796316711.9091473     
   4165457185.8910294     
   3608409674.7145467     
   3170215352.0983605     
   2960744426.3826556     
   3783185911.9770050     
   3237972837.5557380     
   2793911280.8501139     
   2499351326.1580663     
   2443600584.8822598     
   3185212489.3792634     
   2752371388.5462680     
   2490443748.0870352     
   2425379601.8494248     
   2586375608.3357735     
   3375029482.3193212     
   2971218750.3611398     
   2811022004.0600533     
   2894439243.4160633     
   3221470468.4291697     