 <VTKFile type="UnstructuredGrid"  version="0.1"   >
 <UnstructuredGrid>
 <Piece  NumberOfPoints="          1600 "  NumberOfCells="         1024 ">
 <Points>
 <DataArray  type="Float64" NumberOfComponents="3"  format="ascii" >
   0.0000000000000000        0.0000000000000000        0.0000000000000000     
   3.1250000000000000E-002   0.0000000000000000        0.0000000000000000     
   6.2500000000000000E-002   0.0000000000000000        0.0000000000000000     
   9.3750000000000000E-002   0.0000000000000000        0.0000000000000000     
  0.12500000000000000        0.0000000000000000        0.0000000000000000     
   0.0000000000000000        3.1250000000000000E-002   0.0000000000000000     
   3.1250000000000000E-002   3.1250000000000000E-002   0.0000000000000000     
   6.2500000000000000E-002   3.1250000000000000E-002   0.0000000000000000     
   9.3750000000000000E-002   3.1250000000000000E-002   0.0000000000000000     
  0.12500000000000000        3.1250000000000000E-002   0.0000000000000000     
   0.0000000000000000        6.2500000000000000E-002   0.0000000000000000     
   3.1250000000000000E-002   6.2500000000000000E-002   0.0000000000000000     
   6.2500000000000000E-002   6.2500000000000000E-002   0.0000000000000000     
   9.3750000000000000E-002   6.2500000000000000E-002   0.0000000000000000     
  0.12500000000000000        6.2500000000000000E-002   0.0000000000000000     
   0.0000000000000000        9.3750000000000000E-002   0.0000000000000000     
   3.1250000000000000E-002   9.3750000000000000E-002   0.0000000000000000     
   6.2500000000000000E-002   9.3750000000000000E-002   0.0000000000000000     
   9.3750000000000000E-002   9.3750000000000000E-002   0.0000000000000000     
  0.12500000000000000        9.3750000000000000E-002   0.0000000000000000     
   0.0000000000000000       0.12500000000000000        0.0000000000000000     
   3.1250000000000000E-002  0.12500000000000000        0.0000000000000000     
   6.2500000000000000E-002  0.12500000000000000        0.0000000000000000     
   9.3750000000000000E-002  0.12500000000000000        0.0000000000000000     
  0.12500000000000000       0.12500000000000000        0.0000000000000000     
  0.12500000000000000        0.0000000000000000        0.0000000000000000     
  0.15625000000000000        0.0000000000000000        0.0000000000000000     
  0.18750000000000000        0.0000000000000000        0.0000000000000000     
  0.21875000000000000        0.0000000000000000        0.0000000000000000     
  0.25000000000000000        0.0000000000000000        0.0000000000000000     
  0.12500000000000000        3.1250000000000000E-002   0.0000000000000000     
  0.15625000000000000        3.1250000000000000E-002   0.0000000000000000     
  0.18750000000000000        3.1250000000000000E-002   0.0000000000000000     
  0.21875000000000000        3.1250000000000000E-002   0.0000000000000000     
  0.25000000000000000        3.1250000000000000E-002   0.0000000000000000     
  0.12500000000000000        6.2500000000000000E-002   0.0000000000000000     
  0.15625000000000000        6.2500000000000000E-002   0.0000000000000000     
  0.18750000000000000        6.2500000000000000E-002   0.0000000000000000     
  0.21875000000000000        6.2500000000000000E-002   0.0000000000000000     
  0.25000000000000000        6.2500000000000000E-002   0.0000000000000000     
  0.12500000000000000        9.3750000000000000E-002   0.0000000000000000     
  0.15625000000000000        9.3750000000000000E-002   0.0000000000000000     
  0.18750000000000000        9.3750000000000000E-002   0.0000000000000000     
  0.21875000000000000        9.3750000000000000E-002   0.0000000000000000     
  0.25000000000000000        9.3750000000000000E-002   0.0000000000000000     
  0.12500000000000000       0.12500000000000000        0.0000000000000000     
  0.15625000000000000       0.12500000000000000        0.0000000000000000     
  0.18750000000000000       0.12500000000000000        0.0000000000000000     
  0.21875000000000000       0.12500000000000000        0.0000000000000000     
  0.25000000000000000       0.12500000000000000        0.0000000000000000     
  0.25000000000000000        0.0000000000000000        0.0000000000000000     
  0.28125000000000000        0.0000000000000000        0.0000000000000000     
  0.31250000000000000        0.0000000000000000        0.0000000000000000     
  0.34375000000000000        0.0000000000000000        0.0000000000000000     
  0.37500000000000000        0.0000000000000000        0.0000000000000000     
  0.25000000000000000        3.1250000000000000E-002   0.0000000000000000     
  0.28125000000000000        3.1250000000000000E-002   0.0000000000000000     
  0.31250000000000000        3.1250000000000000E-002   0.0000000000000000     
  0.34375000000000000        3.1250000000000000E-002   0.0000000000000000     
  0.37500000000000000        3.1250000000000000E-002   0.0000000000000000     
  0.25000000000000000        6.2500000000000000E-002   0.0000000000000000     
  0.28125000000000000        6.2500000000000000E-002   0.0000000000000000     
  0.31250000000000000        6.2500000000000000E-002   0.0000000000000000     
  0.34375000000000000        6.2500000000000000E-002   0.0000000000000000     
  0.37500000000000000        6.2500000000000000E-002   0.0000000000000000     
  0.25000000000000000        9.3750000000000000E-002   0.0000000000000000     
  0.28125000000000000        9.3750000000000000E-002   0.0000000000000000     
  0.31250000000000000        9.3750000000000000E-002   0.0000000000000000     
  0.34375000000000000        9.3750000000000000E-002   0.0000000000000000     
  0.37500000000000000        9.3750000000000000E-002   0.0000000000000000     
  0.25000000000000000       0.12500000000000000        0.0000000000000000     
  0.28125000000000000       0.12500000000000000        0.0000000000000000     
  0.31250000000000000       0.12500000000000000        0.0000000000000000     
  0.34375000000000000       0.12500000000000000        0.0000000000000000     
  0.37500000000000000       0.12500000000000000        0.0000000000000000     
  0.37500000000000000        0.0000000000000000        0.0000000000000000     
  0.40625000000000000        0.0000000000000000        0.0000000000000000     
  0.43750000000000000        0.0000000000000000        0.0000000000000000     
  0.46875000000000000        0.0000000000000000        0.0000000000000000     
  0.50000000000000000        0.0000000000000000        0.0000000000000000     
  0.37500000000000000        3.1250000000000000E-002   0.0000000000000000     
  0.40625000000000000        3.1250000000000000E-002   0.0000000000000000     
  0.43750000000000000        3.1250000000000000E-002   0.0000000000000000     
  0.46875000000000000        3.1250000000000000E-002   0.0000000000000000     
  0.50000000000000000        3.1250000000000000E-002   0.0000000000000000     
  0.37500000000000000        6.2500000000000000E-002   0.0000000000000000     
  0.40625000000000000        6.2500000000000000E-002   0.0000000000000000     
  0.43750000000000000        6.2500000000000000E-002   0.0000000000000000     
  0.46875000000000000        6.2500000000000000E-002   0.0000000000000000     
  0.50000000000000000        6.2500000000000000E-002   0.0000000000000000     
  0.37500000000000000        9.3750000000000000E-002   0.0000000000000000     
  0.40625000000000000        9.3750000000000000E-002   0.0000000000000000     
  0.43750000000000000        9.3750000000000000E-002   0.0000000000000000     
  0.46875000000000000        9.3750000000000000E-002   0.0000000000000000     
  0.50000000000000000        9.3750000000000000E-002   0.0000000000000000     
  0.37500000000000000       0.12500000000000000        0.0000000000000000     
  0.40625000000000000       0.12500000000000000        0.0000000000000000     
  0.43750000000000000       0.12500000000000000        0.0000000000000000     
  0.46875000000000000       0.12500000000000000        0.0000000000000000     
  0.50000000000000000       0.12500000000000000        0.0000000000000000     
  0.50000000000000000        0.0000000000000000        0.0000000000000000     
  0.53125000000000000        0.0000000000000000        0.0000000000000000     
  0.56250000000000000        0.0000000000000000        0.0000000000000000     
  0.59375000000000000        0.0000000000000000        0.0000000000000000     
  0.62500000000000000        0.0000000000000000        0.0000000000000000     
  0.50000000000000000        3.1250000000000000E-002   0.0000000000000000     
  0.53125000000000000        3.1250000000000000E-002   0.0000000000000000     
  0.56250000000000000        3.1250000000000000E-002   0.0000000000000000     
  0.59375000000000000        3.1250000000000000E-002   0.0000000000000000     
  0.62500000000000000        3.1250000000000000E-002   0.0000000000000000     
  0.50000000000000000        6.2500000000000000E-002   0.0000000000000000     
  0.53125000000000000        6.2500000000000000E-002   0.0000000000000000     
  0.56250000000000000        6.2500000000000000E-002   0.0000000000000000     
  0.59375000000000000        6.2500000000000000E-002   0.0000000000000000     
  0.62500000000000000        6.2500000000000000E-002   0.0000000000000000     
  0.50000000000000000        9.3750000000000000E-002   0.0000000000000000     
  0.53125000000000000        9.3750000000000000E-002   0.0000000000000000     
  0.56250000000000000        9.3750000000000000E-002   0.0000000000000000     
  0.59375000000000000        9.3750000000000000E-002   0.0000000000000000     
  0.62500000000000000        9.3750000000000000E-002   0.0000000000000000     
  0.50000000000000000       0.12500000000000000        0.0000000000000000     
  0.53125000000000000       0.12500000000000000        0.0000000000000000     
  0.56250000000000000       0.12500000000000000        0.0000000000000000     
[...]
 <PointData>
 <DataArray  type="Float64" Name="disp" NumberOfComponents="3" format="ascii">
   0.0000000000000000        0.0000000000000000        0.0000000000000000     
   6.0954393862835271E-003   3.7923062923744437E-003   0.0000000000000000     
   1.1665641100927424E-002   7.3259164308952050E-003   0.0000000000000000     
   1.6710605143931696E-002   1.0600830415562285E-002   0.0000000000000000     
   2.1230331515296332E-002   1.3617048246375680E-002   0.0000000000000000     
   0.0000000000000000        0.0000000000000000        0.0000000000000000     
   4.8911157247594188E-003   3.0229613711994364E-003   0.0000000000000000     
   9.5738550362775270E-003   6.0614013507772789E-003   0.0000000000000000     
   1.4048217934554323E-002   9.1153199387335286E-003   0.0000000000000000     
   1.8314204419589808E-002   1.2184717135068183E-002   0.0000000000000000     
   0.0000000000000000        0.0000000000000000        0.0000000000000000     
   3.9537986464610875E-003   2.4251767103665857E-003   0.0000000000000000     
   7.9111395908784965E-003   5.0629226371148497E-003   0.0000000000000000     
   1.1872022833252227E-002   7.9132377802447907E-003   0.0000000000000000     
   1.5836448373582279E-002   1.0976122139756411E-002   0.0000000000000000     
   0.0000000000000000        0.0000000000000000        0.0000000000000000     
   3.2834881513885300E-003   1.9989523098758910E-003   0.0000000000000000     
   6.6774947647303337E-003   4.3304802899079156E-003   0.0000000000000000     
   1.0182019840025411E-002   6.9945839400960726E-003   0.0000000000000000     
   1.3797063377273759E-002   9.9912632604403622E-003   0.0000000000000000     
   0.0000000000000000        0.0000000000000000        0.0000000000000000     
   2.8801842395417476E-003   1.7442881697273529E-003   0.0000000000000000     
   5.8729205578330369E-003   3.8640743091564777E-003   0.0000000000000000     
   8.9782089548738672E-003   6.3593584182873751E-003   0.0000000000000000     
   1.2196049430664239E-002   9.2301404971200443E-003   0.0000000000000000     
   2.1230331515296332E-002   1.3617048246375680E-002   0.0000000000000000     
   2.5436607059554497E-002   1.6607791917726367E-002   0.0000000000000000     
   2.9541218621239332E-002   1.9806283424005318E-002   0.0000000000000000     
   3.3544166200350847E-002   2.3212522765212545E-002   0.0000000000000000     
   3.7445449796889040E-002   2.6826509941348033E-002   0.0000000000000000     
   1.8314204419589808E-002   1.2184717135068183E-002   0.0000000000000000     
   2.2409280705150157E-002   1.5339295232371399E-002   0.0000000000000000     
   2.6370913005001554E-002   1.8648756523233327E-002   0.0000000000000000     
   3.0199101319143998E-002   2.2113101007653981E-002   0.0000000000000000     
   3.3893845647577497E-002   2.5732328685633347E-002   0.0000000000000000     
   1.5836448373582279E-002   1.0976122139756411E-002   0.0000000000000000     
   1.9732120155884554E-002   1.4210766449584902E-002   0.0000000000000000     
   2.3486742124174943E-002   1.7576361443665450E-002   0.0000000000000000     
   2.7100314278453452E-002   2.1072907121998063E-002   0.0000000000000000     
   3.0572836618720064E-002   2.4700403484582734E-002   0.0000000000000000     
   1.3797063377273759E-002   9.9912632604403622E-003   0.0000000000000000     
   1.7405125411757684E-002   1.3222205569366874E-002   0.0000000000000000     
   2.0888705978759498E-002   1.6589098185301680E-002   0.0000000000000000     
   2.4247805078279189E-002   2.0091941108244787E-002   0.0000000000000000     
   2.7482422710316767E-002   2.3730734338196193E-002   0.0000000000000000     
   1.2196049430664239E-002   9.2301404971200443E-003   0.0000000000000000     
   1.5428296472769555E-002   1.2373612591717315E-002   0.0000000000000000     
   1.8576804568755222E-002   1.5686966748142017E-002   0.0000000000000000     
   2.1641573718621226E-002   1.9170202966394153E-002   0.0000000000000000     
   2.4622603922367585E-002   2.2823321246473720E-002   0.0000000000000000     
   3.7445449796889040E-002   2.6826509941348033E-002   0.0000000000000000     
   4.1251925871985715E-002   3.0638659438715098E-002   0.0000000000000000     
   4.4970450886772706E-002   3.4639385743617045E-002   0.0000000000000000     
   4.8601024841249993E-002   3.8828688856053888E-002   0.0000000000000000     
   5.2143647735417589E-002   4.3206568776025620E-002   0.0000000000000000     
   3.3893845647577497E-002   2.5732328685633347E-002   0.0000000000000000     
   3.7481293678733610E-002   2.9532757842706450E-002   0.0000000000000000     
   4.0987593101043933E-002   3.3540706764408325E-002   0.0000000000000000     
   4.4412743914508460E-002   3.7756175450738970E-002   0.0000000000000000     
   4.7756746119127190E-002   4.2179163901698374E-002   0.0000000000000000     
   3.0572836618720064E-002   2.4700403484582734E-002   0.0000000000000000     
   3.3936926969082230E-002   2.8502836250593629E-002   0.0000000000000000     
   3.7225203153647343E-002   3.2524191139204919E-002   0.0000000000000000     
   4.0437665172415427E-002   3.6764468150416584E-002   0.0000000000000000     
   4.3574313025386474E-002   4.1223667284228646E-002   0.0000000000000000     
   2.7482422710316767E-002   2.3730734338196193E-002   0.0000000000000000     
   3.0618825743031573E-002   2.7548894662376623E-002   0.0000000000000000     
   3.3683281044582951E-002   3.1589838868006807E-002   0.0000000000000000     
   3.6675788614970901E-002   3.5853566955086756E-002   0.0000000000000000     
   3.9596348454195414E-002   4.0340078923616449E-002   0.0000000000000000     
   2.4622603922367585E-002   2.2823321246473720E-002   0.0000000000000000     
   2.7526990000581640E-002   2.6670933078055438E-002   0.0000000000000000     
   3.0361826773850732E-002   3.0737649950814017E-002   0.0000000000000000     
   3.3127114242174870E-002   3.5023471864749467E-002   0.0000000000000000     
   3.5822852405554030E-002   3.9528398819861768E-002   0.0000000000000000     
   5.2143647735417589E-002   4.3206568776025620E-002   0.0000000000000000     
   5.5581662683497811E-002   4.7783017642810205E-002   0.0000000000000000     
   5.8898412799712981E-002   5.2568027595685629E-002   0.0000000000000000     
   6.2093898084063098E-002   5.7561598634651871E-002   0.0000000000000000     
   6.5168118536548150E-002   6.2763730759708952E-002   0.0000000000000000     
   4.7756746119127190E-002   4.2179163901698374E-002   0.0000000000000000     
   5.1001765130137433E-002   4.6804496253908673E-002   0.0000000000000000     
   5.4129966362776484E-002   5.1626996643991993E-002   0.0000000000000000     
   5.7141349817044329E-002   5.6646665071948342E-002   0.0000000000000000     
   6.0035915492940989E-002   6.1863501537777713E-002   0.0000000000000000     
   4.3574313025386474E-002   4.1223667284228646E-002   0.0000000000000000     
   4.6617690486540644E-002   4.5887172495432435E-002   0.0000000000000000     
   4.9550341329858125E-002   5.0740367738819285E-002   0.0000000000000000     
   5.2372265555338908E-002   5.5783253014389196E-002   0.0000000000000000     
   5.5083463162982980E-002   6.1015828322142182E-002   0.0000000000000000     
   3.9596348454195414E-002   4.0340078923616449E-002   0.0000000000000000     
   4.2429438752707445E-002   4.5031046367381498E-002   0.0000000000000000     
   4.5159537700957909E-002   4.9908140880167498E-002   0.0000000000000000     
   4.7786645298946814E-002   5.4971362461974455E-002   0.0000000000000000     
   5.0310761546674153E-002   6.0220711112802347E-002   0.0000000000000000     
   3.5822852405554030E-002   3.9528398819861768E-002   0.0000000000000000     
   3.8437009928637828E-002   4.4236117869755856E-002   0.0000000000000000     
   4.0957555476075838E-002   4.9130316068036639E-002   0.0000000000000000     
   4.3384489047868062E-002   5.4210993414704096E-002   0.0000000000000000     
   4.5717810644014492E-002   5.9478149909758249E-002   0.0000000000000000     
   6.5168118536548150E-002   6.2763730759708952E-002   0.0000000000000000     
   6.8163392755410307E-002   6.8164038766174412E-002   0.0000000000000000     
   7.1122039338891635E-002   7.3752137449365790E-002   0.0000000000000000     
   7.4044058286992218E-002   7.9528026809283059E-002   0.0000000000000000     
   7.6929449599711985E-002   8.5491706845926274E-002   0.0000000000000000     
   6.0035915492940989E-002   6.1863501537777713E-002   0.0000000000000000     
   6.2855858262563680E-002   6.7277022641719517E-002   0.0000000000000000     
   6.5643372998009611E-002   7.2886744984013166E-002   0.0000000000000000     
   6.8398459699278796E-002   7.8692668564658702E-002   0.0000000000000000     
   7.1121118366371236E-002   8.4694793383656056E-002   0.0000000000000000     
   5.5083463162982980E-002   6.1015828322142182E-002   0.0000000000000000     
   5.7724605593483247E-002   6.6444598252598977E-002   0.0000000000000000     
   6.0336364287532585E-002   7.2076067396280349E-002   0.0000000000000000     
   6.2918739245130986E-002   7.7910235753186299E-002   0.0000000000000000     
   6.5471730466278452E-002   8.3947103323316827E-002   0.0000000000000000     
   5.0310761546674153E-002   6.0220711112802347E-002   0.0000000000000000     
   5.2769634748169043E-002   6.5666765598812779E-002   0.0000000000000000     
   5.5201013207460584E-002   7.1320104686167299E-002   0.0000000000000000     
   5.7604896924548767E-002   7.7180728374865906E-002   0.0000000000000000     
   5.9981285899433613E-002   8.3248636664908629E-002   0.0000000000000000     
   4.5717810644014492E-002   5.9478149909758249E-002   0.0000000000000000     
   4.7990945726621034E-002   6.4943524680360951E-002   0.0000000000000000     
   5.0237319757793594E-002   7.0618856853674028E-002   0.0000000000000000     
   5.2456932737532165E-002   7.6504146429697523E-002   0.0000000000000000     
   5.4649784665836740E-002   8.2599393408431407E-002   0.0000000000000000     
   7.6929449599711985E-002   8.5491706845926274E-002   0.0000000000000000     
   7.9727419843315106E-002   9.1628632950187583E-002   0.0000000000000000     
   8.2387175584065692E-002   9.7924260512959202E-002   0.0000000000000000     
   8.4908716821963728E-002  0.10437858953424112        0.0000000000000000     
   8.7292043557009230E-002  0.11099162001403334        0.0000000000000000     
   7.1121118366371236E-002   8.4694793383656056E-002   0.0000000000000000     
   7.3765750704572808E-002   9.0871784826674087E-002   0.0000000000000000     
   7.6286758419169376E-002   9.7202308279381588E-002   0.0000000000000000     
   7.8684141510160927E-002  0.10368636374177860        0.0000000000000000     
   8.0957899977547487E-002  0.11032395121386508        0.0000000000000000     
   6.5471730466278452E-002   8.3947103323316827E-002   0.0000000000000000     
   6.7954213560449978E-002   9.0160380367320506E-002   0.0000000000000000     
   7.0325064137120585E-002   9.6523777145845854E-002   0.0000000000000000     
   7.2584282196290303E-002  0.10303729365889290        0.0000000000000000     
   7.4731867737959076E-002  0.10970092990646164        0.0000000000000000     
   5.9981285899433613E-002   8.3248636664908629E-002   0.0000000000000000     
   6.2292808410946643E-002   8.9494419572126824E-002   0.0000000000000000     
   6.4502092737919389E-002   9.5888667112351986E-002   0.0000000000000000     
   6.6609138880351845E-002  0.10243137928558402        0.0000000000000000     
   6.8613946838244011E-002  0.10912255609182302        0.0000000000000000     
   5.4649784665836740E-002   8.2599393408431407E-002   0.0000000000000000     
   5.6781535256062776E-002   8.8873902441093069E-002   0.0000000000000000     
   5.8817844221565718E-002   9.5296978178899955E-002   0.0000000000000000     
   6.0758711562345545E-002  0.10186862062185198        0.0000000000000000     
   6.2604137278402278E-002  0.10858882976994921        0.0000000000000000     
   8.7292043557009230E-002  0.11099162001403334        0.0000000000000000     
   8.9511909745478610E-002  0.11772443152300209        0.0000000000000000     
   9.1543069343648351E-002  0.12453810363181353        0.0000000000000000     
   9.3385522351518382E-002  0.13143263634046773        0.0000000000000000     
   9.5039268769088733E-002  0.13840802964896456        0.0000000000000000     
   8.0957899977547487E-002  0.11032395121386508        0.0000000000000000     
   8.3071165478028286E-002  0.11707941842480364        0.0000000000000000     
   8.4987069668302606E-002  0.12391711310375686        0.0000000000000000     
   8.6705612548370406E-002  0.13083703525072476        0.0000000000000000     
   8.8226794118231699E-002  0.13783918486570729        0.0000000000000000     
   7.4731867737959076E-002  0.10970092990646164        0.0000000000000000     
   7.6725018420395474E-002  0.11647926918641345        0.0000000000000000     
   7.8520931901868013E-002  0.12333689479660974        0.0000000000000000     
   8.0119608182376678E-002  0.13027380673705047        0.0000000000000000     
   8.1521047261921498E-002  0.13729000500773569        0.0000000000000000     
   6.8613946838244011E-002  0.10912255609182302        0.0000000000000000     
   7.0473468572580175E-002  0.11592398380783153        0.0000000000000000     
   7.2144656044344571E-002  0.12279744871037217        0.0000000000000000     
   7.3627509253537213E-002  0.12974295079944489        0.0000000000000000     
   7.4922028200158114E-002  0.13676049007504981        0.0000000000000000     
   6.2604137278402278E-002  0.10858882976994921        0.0000000000000000     
   6.4316515934582361E-002  0.11541356228905784        0.0000000000000000     
   6.5858242095732281E-002  0.12229877484504412        0.0000000000000000     
   6.7229315761852024E-002  0.12924446743790802        0.0000000000000000     
   6.8429736932941576E-002  0.13625064006764959        0.0000000000000000     
   9.5039268769088733E-002  0.13840802964896456        0.0000000000000000     
   9.6689755344154221E-002  0.14557363011341812        0.0000000000000000     
   9.8522428824509692E-002  0.15303878428994233        0.0000000000000000     
  0.10053728921015512       0.16080349217853723        0.0000000000000000     
  0.10273433650109050       0.16886775377920279        0.0000000000000000     
   8.8226794118231699E-002  0.13783918486570729        0.0000000000000000     
   8.9791953037745301E-002  0.14503202128003553        0.0000000000000000     
   9.1642427966769996E-002  0.15252400382504058        0.0000000000000000     
   9.3778218905305771E-002  0.16031513250072243        0.0000000000000000     
   9.6199325853352669E-002  0.16840540730708098        0.0000000000000000     
   8.1521047261921498E-002  0.13729000500773569        0.0000000000000000     
   8.2993326736837986E-002  0.14450148180534017        0.0000000000000000     
   8.4804524203461712E-002  0.15202422932653867        0.0000000000000000     
   8.6954639661792649E-002  0.15985824757133116        0.0000000000000000     
   8.9443673111830810E-002  0.16800353653971772        0.0000000000000000     
   7.4922028200158114E-002  0.13676049007504981        0.0000000000000000     
   7.6293876441432304E-002  0.14398201168933197        0.0000000000000000     
   7.8008717534584868E-002  0.15153946079443653        0.0000000000000000     
   8.0066551479615722E-002  0.15943283739036354        0.0000000000000000     
   8.2467378276524936E-002  0.16766214147711295        0.0000000000000000     
   6.8429736932941576E-002  0.13625064006764959        0.0000000000000000     
   6.9693602151528283E-002  0.14347361093201094        0.0000000000000000     
   7.1255007960139422E-002  0.15106969822873423        0.0000000000000000     
   7.3113954358775018E-002  0.15903890195781950        0.0000000000000000     
   7.5270441347435046E-002  0.16738122211926673        0.0000000000000000     
   0.0000000000000000        0.0000000000000000        0.0000000000000000     
   2.8801842395417476E-003   1.7442881697273529E-003   0.0000000000000000     
   5.8729205578330369E-003   3.8640743091564777E-003   0.0000000000000000     
   8.9782089548738672E-003   6.3593584182873751E-003   0.0000000000000000     
   1.2196049430664239E-002   9.2301404971200443E-003   0.0000000000000000     
   0.0000000000000000        0.0000000000000000        0.0000000000000000     
   2.6101980691384378E-003   1.5883720956975072E-003   0.0000000000000000     
   5.2896445623098398E-003   3.5561957953502915E-003   0.0000000000000000     
   8.0383394795142046E-003   5.9034710989583541E-003   0.0000000000000000     
   1.0856282820751535E-002   8.6301980065216933E-003   0.0000000000000000     
   0.0000000000000000        0.0000000000000000        0.0000000000000000     
   2.3398407983962958E-003   1.4583918935628896E-003   0.0000000000000000     
   4.7198943702839707E-003   3.2993358489791114E-003   0.0000000000000000     
   7.1401607156630249E-003   5.5228318662486680E-003   0.0000000000000000     
   9.6006398345334573E-003   8.1288799453715574E-003   0.0000000000000000     
   0.0000000000000000        0.0000000000000000        0.0000000000000000     
   2.0691124273153230E-003   1.3543475633234999E-003   0.0000000000000000     
   4.1636699817554322E-003   3.0934944700429391E-003   0.0000000000000000     
   6.2836726633203254E-003   5.2174407201583161E-003   0.0000000000000000     
   8.4291204720100057E-003   7.7261863136696331E-003   0.0000000000000000     
   0.0000000000000000        0.0000000000000000        0.0000000000000000     
   1.7980129558955182E-003   1.2762391049793392E-003   0.0000000000000000     
   3.6209713967242218E-003   2.9386716585417727E-003   0.0000000000000000     
   5.4688753224861096E-003   4.9872976606873008E-003   0.0000000000000000     
   7.3417247331811833E-003   7.4221171114159231E-003   0.0000000000000000     
   1.2196049430664239E-002   9.2301404971200443E-003   0.0000000000000000     
   1.5428296472769555E-002   1.2373612591717315E-002   0.0000000000000000     
   1.8576804568755222E-002   1.5686966748142017E-002   0.0000000000000000     
   2.1641573718621226E-002   1.9170202966394153E-002   0.0000000000000000     
   2.4622603922367585E-002   2.2823321246473720E-002   0.0000000000000000     
   1.0856282820751535E-002   8.6301980065216933E-003   0.0000000000000000     
   1.3689680248071656E-002   1.1653140903694540E-002   0.0000000000000000     
   1.6484737423524392E-002   1.4889064176131122E-002   0.0000000000000000     
   1.9241454347109752E-002   1.8337967823831437E-002   0.0000000000000000     
   2.1959831018827727E-002   2.1999851846795492E-002   0.0000000000000000     
   9.6006398345334573E-003   8.1288799453715574E-003   0.0000000000000000     
   1.2077323646815481E-002   1.1048943892356857E-002   0.0000000000000000     
   1.4546204072429306E-002   1.4214487513213640E-002   0.0000000000000000     
   1.7007281111374929E-002   1.7625510807941912E-002   0.0000000000000000     
   1.9460554763652362E-002   2.1282013776541670E-002   0.0000000000000000     
   8.4291204720100057E-003   7.7261863136696331E-003   0.0000000000000000     
   1.0591226669001029E-002   1.0561021557704260E-002   0.0000000000000000     
   1.2761204515469953E-002   1.3663236759389576E-002   0.0000000000000000     
   1.4939054011416774E-002   1.7032831918725577E-002   0.0000000000000000     
   1.7124775156841496E-002   2.0669807035712265E-002   0.0000000000000000     
   7.3417247331811833E-003   7.4221171114159231E-003   0.0000000000000000     
   9.2313893146283039E-003   1.0189373899736761E-002   0.0000000000000000     
   1.1129738752646336E-002   1.3235311914658930E-002   0.0000000000000000     
   1.3036773047235278E-002   1.6559931156182435E-002   0.0000000000000000     
   1.4952492198395131E-002   2.0163231624307269E-002   0.0000000000000000     
   2.4622603922367585E-002   2.2823321246473720E-002   0.0000000000000000     
   2.7526990000581640E-002   2.6670933078055438E-002   0.0000000000000000     