 <VTKFile type="UnstructuredGrid"  version="0.1"   >
 <UnstructuredGrid>
 <Piece  NumberOfPoints="          1600 "  NumberOfCells="         1024 ">
 <Points>
 <DataArray  type="Float64" NumberOfComponents="3"  format="ascii" >
   0.0000000000000000        0.0000000000000000        0.0000000000000000     
   3.1250000000000000E-002   0.0000000000000000        0.0000000000000000     
   6.2500000000000000E-002   0.0000000000000000        0.0000000000000000     
   9.3750000000000000E-002   0.0000000000000000        0.0000000000000000     
  0.12500000000000000        0.0000000000000000        0.0000000000000000     
   0.0000000000000000        3.1250000000000000E-002   0.0000000000000000     
   3.1250000000000000E-002   3.1250000000000000E-002   0.0000000000000000     
   6.2500000000000000E-002   3.1250000000000000E-002   0.0000000000000000     
   9.3750000000000000E-002   3.1250000000000000E-002   0.0000000000000000     
  0.12500000000000000        3.1250000000000000E-002   0.0000000000000000     
   0.0000000000000000        6.2500000000000000E-002   0.0000000000000000     
   3.1250000000000000E-002   6.2500000000000000E-002   0.0000000000000000     
   6.2500000000000000E-002   6.2500000000000000E-002   0.0000000000000000     
   9.3750000000000000E-002   6.2500000000000000E-002   0.0000000000000000     
  0.12500000000000000        6.2500000000000000E-002   0.0000000000000000     
   0.0000000000000000        9.3750000000000000E-002   0.0000000000000000     
   3.1250000000000000E-002   9.3750000000000000E-002   0.0000000000000000     
   6.2500000000000000E-002   9.3750000000000000E-002   0.0000000000000000     
   9.3750000000000000E-002   9.3750000000000000E-002   0.0000000000000000     
  0.12500000000000000        9.3750000000000000E-002   0.0000000000000000     
   0.0000000000000000       0.12500000000000000        0.0000000000000000     
   3.1250000000000000E-002  0.12500000000000000        0.0000000000000000     
   6.2500000000000000E-002  0.12500000000000000        0.0000000000000000     
   9.3750000000000000E-002  0.12500000000000000        0.0000000000000000     
  0.12500000000000000       0.12500000000000000        0.0000000000000000     
  0.12500000000000000        0.0000000000000000        0.0000000000000000     
  0.15625000000000000        0.0000000000000000        0.0000000000000000     
  0.18750000000000000        0.0000000000000000        0.0000000000000000     
  0.21875000000000000        0.0000000000000000        0.0000000000000000     
  0.25000000000000000        0.0000000000000000        0.0000000000000000     
  0.12500000000000000        3.1250000000000000E-002   0.0000000000000000     
  0.15625000000000000        3.1250000000000000E-002   0.0000000000000000     
  0.18750000000000000        3.1250000000000000E-002   0.0000000000000000     
  0.21875000000000000        3.1250000000000000E-002   0.0000000000000000     
  0.25000000000000000        3.1250000000000000E-002   0.0000000000000000     
  0.12500000000000000        6.2500000000000000E-002   0.0000000000000000     
  0.15625000000000000        6.2500000000000000E-002   0.0000000000000000     
  0.18750000000000000        6.2500000000000000E-002   0.0000000000000000     
  0.21875000000000000        6.2500000000000000E-002   0.0000000000000000     
  0.25000000000000000        6.2500000000000000E-002   0.0000000000000000     
  0.12500000000000000        9.3750000000000000E-002   0.0000000000000000     
  0.15625000000000000        9.3750000000000000E-002   0.0000000000000000     
  0.18750000000000000        9.3750000000000000E-002   0.0000000000000000     
  0.21875000000000000        9.3750000000000000E-002   0.0000000000000000     
  0.25000000000000000        9.3750000000000000E-002   0.0000000000000000     
  0.12500000000000000       0.12500000000000000        0.0000000000000000     
  0.15625000000000000       0.12500000000000000        0.0000000000000000     
  0.18750000000000000       0.12500000000000000        0.0000000000000000     
  0.21875000000000000       0.12500000000000000        0.0000000000000000     
  0.25000000000000000       0.12500000000000000        0.0000000000000000     
  0.25000000000000000        0.0000000000000000        0.0000000000000000     
  0.28125000000000000        0.0000000000000000        0.0000000000000000     
  0.31250000000000000        0.0000000000000000        0.0000000000000000     
  0.34375000000000000        0.0000000000000000        0.0000000000000000     
  0.37500000000000000        0.0000000000000000        0.0000000000000000     
  0.25000000000000000        3.1250000000000000E-002   0.0000000000000000     
  0.28125000000000000        3.1250000000000000E-002   0.0000000000000000     
  0.31250000000000000        3.1250000000000000E-002   0.0000000000000000     
  0.34375000000000000        3.1250000000000000E-002   0.0000000000000000     
  0.37500000000000000        3.1250000000000000E-002   0.0000000000000000     
  0.25000000000000000        6.2500000000000000E-002   0.0000000000000000     
  0.28125000000000000        6.2500000000000000E-002   0.0000000000000000     
  0.31250000000000000        6.2500000000000000E-002   0.0000000000000000     
  0.34375000000000000        6.2500000000000000E-002   0.0000000000000000     
  0.37500000000000000        6.2500000000000000E-002   0.0000000000000000     
  0.25000000000000000        9.3750000000000000E-002   0.0000000000000000     
  0.28125000000000000        9.3750000000000000E-002   0.0000000000000000     
  0.31250000000000000        9.3750000000000000E-002   0.0000000000000000     
  0.34375000000000000        9.3750000000000000E-002   0.0000000000000000     
  0.37500000000000000        9.3750000000000000E-002   0.0000000000000000     
  0.25000000000000000       0.12500000000000000        0.0000000000000000     
  0.28125000000000000       0.12500000000000000        0.0000000000000000     
  0.31250000000000000       0.12500000000000000        0.0000000000000000     
  0.34375000000000000       0.12500000000000000        0.0000000000000000     
  0.37500000000000000       0.12500000000000000        0.0000000000000000     
  0.37500000000000000        0.0000000000000000        0.0000000000000000     
  0.40625000000000000        0.0000000000000000        0.0000000000000000     
  0.43750000000000000        0.0000000000000000        0.0000000000000000     
  0.46875000000000000        0.0000000000000000        0.0000000000000000     
  0.50000000000000000        0.0000000000000000        0.0000000000000000     
  0.37500000000000000        3.1250000000000000E-002   0.0000000000000000     
  0.40625000000000000        3.1250000000000000E-002   0.0000000000000000     
  0.43750000000000000        3.1250000000000000E-002   0.0000000000000000     
  0.46875000000000000        3.1250000000000000E-002   0.0000000000000000     
  0.50000000000000000        3.1250000000000000E-002   0.0000000000000000     
  0.37500000000000000        6.2500000000000000E-002   0.0000000000000000     
  0.40625000000000000        6.2500000000000000E-002   0.0000000000000000     
  0.43750000000000000        6.2500000000000000E-002   0.0000000000000000     
  0.46875000000000000        6.2500000000000000E-002   0.0000000000000000     
  0.50000000000000000        6.2500000000000000E-002   0.0000000000000000     
  0.37500000000000000        9.3750000000000000E-002   0.0000000000000000     
  0.40625000000000000        9.3750000000000000E-002   0.0000000000000000     
  0.43750000000000000        9.3750000000000000E-002   0.0000000000000000     
  0.46875000000000000        9.3750000000000000E-002   0.0000000000000000     
  0.50000000000000000        9.3750000000000000E-002   0.0000000000000000     
  0.37500000000000000       0.12500000000000000        0.0000000000000000     
  0.40625000000000000       0.12500000000000000        0.0000000000000000     
  0.43750000000000000       0.12500000000000000        0.0000000000000000     
  0.46875000000000000       0.12500000000000000        0.0000000000000000     
  0.50000000000000000       0.12500000000000000        0.0000000000000000     
  0.50000000000000000        0.0000000000000000        0.0000000000000000     
  0.53125000000000000        0.0000000000000000        0.0000000000000000     
  0.56250000000000000        0.0000000000000000        0.0000000000000000     
  0.59375000000000000        0.0000000000000000        0.0000000000000000     
  0.62500000000000000        0.0000000000000000        0.0000000000000000     
  0.50000000000000000        3.1250000000000000E-002   0.0000000000000000     
  0.53125000000000000        3.1250000000000000E-002   0.0000000000000000     
  0.56250000000000000        3.1250000000000000E-002   0.0000000000000000     
  0.59375000000000000        3.1250000000000000E-002   0.0000000000000000     
  0.62500000000000000        3.1250000000000000E-002   0.0000000000000000     
  0.50000000000000000        6.2500000000000000E-002   0.0000000000000000     
  0.53125000000000000        6.2500000000000000E-002   0.0000000000000000     
  0.56250000000000000        6.2500000000000000E-002   0.0000000000000000     
  0.59375000000000000        6.2500000000000000E-002   0.0000000000000000     
  0.62500000000000000        6.2500000000000000E-002   0.0000000000000000     
  0.50000000000000000        9.3750000000000000E-002   0.0000000000000000     
  0.53125000000000000        9.3750000000000000E-002   0.0000000000000000     
  0.56250000000000000        9.3750000000000000E-002   0.0000000000000000     
  0.59375000000000000        9.3750000000000000E-002   0.0000000000000000     
  0.62500000000000000        9.3750000000000000E-002   0.0000000000000000     
  0.50000000000000000       0.12500000000000000        0.0000000000000000     
  0.53125000000000000       0.12500000000000000        0.0000000000000000     
  0.56250000000000000       0.12500000000000000        0.0000000000000000     
[...]
 <PointData>
 <DataArray  type="Float64" Name="disp" NumberOfComponents="3" format="ascii">
   0.0000000000000000        0.0000000000000000        0.0000000000000000     
   6.0957393783942085E-003   3.7666789595852497E-003   0.0000000000000000     
   1.1674833093664631E-002   7.2775235820758972E-003   0.0000000000000000     
   1.6737281145811272E-002   1.0532533867471943E-002   0.0000000000000000     
   2.1283083534834126E-002   1.3531709815773386E-002   0.0000000000000000     
   0.0000000000000000        0.0000000000000000        0.0000000000000000     
   4.8985495821966558E-003   2.9964187074959740E-003   0.0000000000000000     
   9.5947505236583103E-003   6.0093592531558710E-003   0.0000000000000000     
   1.4088602824384963E-002   9.0388216369796902E-003   0.0000000000000000     
   1.8380106484376612E-002   1.2084805858967432E-002   0.0000000000000000     
   0.0000000000000000        0.0000000000000000        0.0000000000000000     
   3.9647399696934272E-003   2.3981432568560301E-003   0.0000000000000000     
   7.9366032061318377E-003   5.0087962681442996E-003   0.0000000000000000     
   1.1915589709315232E-002   7.8319590338648097E-003   0.0000000000000000     
   1.5901699479243612E-002   1.0867631554017558E-002   0.0000000000000000     
   0.0000000000000000        0.0000000000000000        0.0000000000000000     
   3.2943105408845220E-003   1.9718526076654181E-003   0.0000000000000000     
   6.7003911410852164E-003   4.2758346270411847E-003   0.0000000000000000     
   1.0218241800602084E-002   6.9119460581272985E-003   0.0000000000000000     
   1.3847862519435124E-002   9.8801869009237618E-003   0.0000000000000000     
   0.0000000000000000        0.0000000000000000        0.0000000000000000     
   2.8872612957699401E-003   1.7175467599241372E-003   0.0000000000000000     
   5.8861143285184447E-003   3.8104743298465237E-003   0.0000000000000000     
   8.9965590982455136E-003   6.2787827097671592E-003   0.0000000000000000     
   1.2218595604951147E-002   9.1224718996860427E-003   0.0000000000000000     
   2.1283083534834126E-002   1.3531709815773386E-002   0.0000000000000000     
   2.5525609937075894E-002   1.6502400123106942E-002   0.0000000000000000     
   2.9678230028879267E-002   1.9671953485599320E-002   0.0000000000000000     
   3.3740943810244249E-002   2.3040369903250525E-002   0.0000000000000000     
   3.7713751281170847E-002   2.6607649376060558E-002   0.0000000000000000     
   1.8380106484376612E-002   1.2084805858967432E-002   0.0000000000000000     
   2.2509055953269911E-002   1.5213611966987856E-002   0.0000000000000000     
   2.6515245680701498E-002   1.8491540008909717E-002   0.0000000000000000     
   3.0398675666671385E-002   2.1918589984733016E-002   0.0000000000000000     
   3.4159345911179556E-002   2.5494761894457749E-002   0.0000000000000000     
   1.5901699479243612E-002   1.0867631554017558E-002   0.0000000000000000     
   1.9825077282218183E-002   1.4073511298077053E-002   0.0000000000000000     
   2.3615867884540152E-002   1.7407295735517792E-002   0.0000000000000000     
   2.7274071286209522E-002   2.0868984866339781E-002   0.0000000000000000     
   3.0799687487226290E-002   2.4458578690543027E-002   0.0000000000000000     
   1.3847862519435124E-002   9.8801869009237618E-003   0.0000000000000000     
   1.7473673923920713E-002   1.3082098116374528E-002   0.0000000000000000     
   2.0980096640395227E-002   1.6419220665423555E-002   0.0000000000000000     
   2.4367130668858671E-002   1.9891554548070844E-002   0.0000000000000000     
   2.7634776009311031E-002   2.3499099764316390E-002   0.0000000000000000     
   1.2218595604951147E-002   9.1224718996860427E-003   0.0000000000000000     
   1.5454845878377499E-002   1.2239372421880289E-002   0.0000000000000000     
   1.8607931948266723E-002   1.5527314798627005E-002   0.0000000000000000     
   2.1677853814618821E-002   1.8986299029926192E-002   0.0000000000000000     
   2.4664611477433790E-002   2.2616325115777852E-002   0.0000000000000000     
   3.7713751281170847E-002   2.6607649376060558E-002   0.0000000000000000     
   4.1622242357538211E-002   3.0388303788542292E-002   0.0000000000000000     
   4.5492006955225532E-002   3.4396845025208629E-002   0.0000000000000000     
   4.9323045074232789E-002   3.8633273086059544E-002   0.0000000000000000     
   5.3115356714559997E-002   4.3097587971095058E-002   0.0000000000000000     
   3.4159345911179556E-002   2.5494761894457749E-002   0.0000000000000000     
   3.7832426947029207E-002   2.9262583227797075E-002   0.0000000000000000     
   4.1453089307023516E-002   3.3264581474464143E-002   0.0000000000000000     
   4.5021332991162476E-002   3.7500756634458961E-002   0.0000000000000000     
   4.8537157999446086E-002   4.1971108707781521E-002   0.0000000000000000     
   3.0799687487226290E-002   2.4458578690543027E-002   0.0000000000000000     
   3.4226791457845712E-002   2.8230045543786983E-002   0.0000000000000000     
   3.7589458168323042E-002   3.2237353761731133E-002   0.0000000000000000     
   4.0887687618658276E-002   3.6480503344375456E-002   0.0000000000000000     
   4.4121479808851428E-002   4.0959494291719974E-002   0.0000000000000000     
   2.7634776009311031E-002   2.3499099764316390E-002   0.0000000000000000     
   3.0805335889987708E-002   2.7290690736512028E-002   0.0000000000000000     
   3.3901113539124096E-002   3.1315161887009585E-002   0.0000000000000000     
   3.6922108956720198E-002   3.5572513215809044E-002   0.0000000000000000     
   3.9868322142775990E-002   4.0062744722910423E-002   0.0000000000000000     
   2.4664611477433790E-002   2.2616325115777852E-002   0.0000000000000000     
   2.7568060243455227E-002   2.6444518805972209E-002   0.0000000000000000     
   3.0388055419426706E-002   3.0498005850299499E-002   0.0000000000000000     
   3.3124597005348227E-002   3.4776786248759718E-002   0.0000000000000000     
   3.5777685001219799E-002   3.9280860001352863E-002   0.0000000000000000     
   5.3115356714559997E-002   4.3097587971095058E-002   0.0000000000000000     
   5.6842292542176279E-002   4.7807832610818640E-002   0.0000000000000000     
   6.0477203223050779E-002   5.2782049935733787E-002   0.0000000000000000     
   6.4020088757183513E-002   5.8020239945840504E-002   0.0000000000000000     
   6.7470949144574452E-002   6.3522402641138787E-002   0.0000000000000000     
   4.8537157999446086E-002   4.1971108707781521E-002   0.0000000000000000     
   5.2000811981416581E-002   4.6697478593614818E-002   0.0000000000000000     
   5.5412542586616140E-002   5.1701707191141845E-002   0.0000000000000000     
   5.8772349815044790E-002   5.6983794500362610E-002   0.0000000000000000     
   6.2080233666702525E-002   6.2543740521277105E-002   0.0000000000000000     
   4.4121479808851428E-002   4.0959494291719974E-002   0.0000000000000000     
   4.7306991864600183E-002   4.5697499629744127E-002   0.0000000000000000     
   5.0460380911602216E-002   5.0717692384427367E-002   0.0000000000000000     
   5.3581646949857571E-002   5.6020072555769670E-002   0.0000000000000000     
   5.6670789979366219E-002   6.1604640143771081E-002   0.0000000000000000     
   3.9868322142775990E-002   4.0062744722910423E-002   0.0000000000000000     
   4.2760832191727077E-002   4.4807895719206570E-002   0.0000000000000000     
   4.5620718198009037E-002   4.9830005515590324E-002   0.0000000000000000     
   4.8447980161621843E-002   5.5129074112061714E-002   0.0000000000000000     
   5.1242618082565507E-002   6.0705101508620699E-002   0.0000000000000000     
   3.5777685001219799E-002   3.9280860001352863E-002   0.0000000000000000     
   3.8362332962797285E-002   4.4028666862002137E-002   0.0000000000000000     
   4.0893554445836554E-002   4.9038646584630759E-002   0.0000000000000000     
   4.3371349450337590E-002   5.4310799169238692E-002   0.0000000000000000     
   4.5795717976300415E-002   5.9845124615825973E-002   0.0000000000000000     
   6.7470949144574452E-002   6.3522402641138787E-002   0.0000000000000000     
   7.0836091343004795E-002   6.9256672532114288E-002   0.0000000000000000     
   7.4121822310255714E-002   7.5191184129252686E-002   0.0000000000000000     
   7.7328142046327208E-002   8.1325937432554007E-002   0.0000000000000000     
   8.0455050551219251E-002   8.7660932442018225E-002   0.0000000000000000     
   6.2080233666702525E-002   6.2543740521277105E-002   0.0000000000000000     
   6.5337219850250872E-002   6.8337263366931147E-002   0.0000000000000000     
   6.8544334074351343E-002   7.4320081150370546E-002   0.0000000000000000     
   7.1701576339003939E-002   8.0492193871595299E-002   0.0000000000000000     
   7.4808946644208674E-002   8.6853601530605437E-002   0.0000000000000000     
   5.6670789979366219E-002   6.1604640143771081E-002   0.0000000000000000     
   5.9729144335524495E-002   6.7423293979501059E-002   0.0000000000000000     
   6.2758044353728767E-002   7.3427932894029088E-002   0.0000000000000000     
   6.5757490033979016E-002   7.9618556887355196E-002   0.0000000000000000     
   6.8727481376275254E-002   8.5995165959479369E-002   0.0000000000000000     
   5.1242618082565507E-002   6.0705101508620699E-002   0.0000000000000000     
   5.4011864798825672E-002   6.6514764369823995E-002   0.0000000000000000     
   5.6762953148387987E-002   7.2514739360228342E-002   0.0000000000000000     
   5.9495883131252432E-002   7.8705026479833656E-002   0.0000000000000000     
   6.2210654747419013E-002   8.5085625728639966E-002   0.0000000000000000     
   4.5795717976300415E-002   5.9845124615825973E-002   0.0000000000000000     
   4.8185381240154410E-002   6.5611674537900011E-002   0.0000000000000000     
   5.0559060458329003E-002   7.1580500548968251E-002   0.0000000000000000     
   5.2916755630824173E-002   7.7751602649030679E-002   0.0000000000000000     
   5.5258466757639929E-002   8.4124980838087324E-002   0.0000000000000000     
   8.0455050551219251E-002   8.7660932442018225E-002   0.0000000000000000     
   8.3501978078974734E-002   9.4170656224868296E-002   0.0000000000000000     
   8.6468354883636522E-002  0.10082959584832721        0.0000000000000000     
   8.9354180965204616E-002  0.10763775131239493        0.0000000000000000     
   9.2159456323679001E-002  0.11459512261707151        0.0000000000000000     
   7.4808946644208674E-002   8.6853601530605437E-002   0.0000000000000000     
   7.7839999746790456E-002   9.3385441384742390E-002   0.0000000000000000     
   8.0768290403574222E-002  0.10006885069134763        0.0000000000000000     
   8.3593818614559959E-002  0.10690382945042112        0.0000000000000000     
   8.6316584379747680E-002  0.11389037766196292        0.0000000000000000     
   6.8727481376275254E-002   8.5995165959479369E-002   0.0000000000000000     
   7.1625146687910424E-002   9.2542397217755257E-002   0.0000000000000000     
   7.4407614276177550E-002   9.9244887769536508E-002   0.0000000000000000     
   7.7074884141076550E-002  0.10610263761482316        0.0000000000000000     
   7.9626956282607492E-002  0.11311564675361518        0.0000000000000000     
   6.2210654747419013E-002   8.5085625728639966E-002   0.0000000000000000     
   6.4857418902334707E-002   9.1641523723906881E-002   0.0000000000000000     
   6.7386326501446506E-002   9.8357707082893889E-002   0.0000000000000000     
   6.9797377544754402E-002  0.10523417580560102        0.0000000000000000     
   7.2090572032258410E-002  0.11227092989202825        0.0000000000000000     
   5.5258466757639929E-002   8.4124980838087324E-002   0.0000000000000000     
   5.7536816390063257E-002   9.0682820903197292E-002   0.0000000000000000     
   5.9704427079381117E-002   9.7407308631419748E-002   0.0000000000000000     
   6.1761298825593509E-002  0.10429844402275473        0.0000000000000000     
   6.3707431628700462E-002  0.11135622707720219        0.0000000000000000     
   9.2159456323679001E-002  0.11459512261707151        0.0000000000000000     
   9.4864937171454763E-002  0.12173630906940214        0.0000000000000000     
   9.7451379720927017E-002  0.12909590997643208        0.0000000000000000     
   9.9918783972095720E-002  0.13667392533816131        0.0000000000000000     
  0.10226714992496092       0.14447035515458984        0.0000000000000000     
   8.6316584379747680E-002  0.11389037766196292        0.0000000000000000     
   8.8952263802194662E-002  0.12107218852034225        0.0000000000000000     
   9.1516532984958154E-002  0.12849295521992840        0.0000000000000000     
   9.4009391928038172E-002  0.13615267776072135        0.0000000000000000     
   9.6430840631434700E-002  0.14405135614272113        0.0000000000000000     
   7.9626956282607492E-002  0.11311564675361518        0.0000000000000000     
   8.2096747225131800E-002  0.12032764702056369        0.0000000000000000     
   8.4517173493010855E-002  0.12778237025031991        0.0000000000000000     
   8.6888235086244728E-002  0.13547981644288379        0.0000000000000000     
   8.9209932004833375E-002  0.14341998559825533        0.0000000000000000     
   7.2090572032258410E-002  0.11227092989202825        0.0000000000000000     
   7.4298387440266123E-002  0.11950268457006651        0.0000000000000000     
   7.6453301245085106E-002  0.12696415506760658        0.0000000000000000     
   7.8555313446715361E-002  0.13465534138464860        0.0000000000000000     
   8.0604424045156914E-002  0.14257624352119247        0.0000000000000000     
   6.3707431628700462E-002  0.11135622707720219        0.0000000000000000     
   6.5557184447597699E-002  0.11859730116885062        0.0000000000000000     
   6.7324916241180907E-002  0.12603830967178847        0.0000000000000000     
   6.9010627009450126E-002  0.13367925258601582        0.0000000000000000     
   7.0614316752405343E-002  0.14152012991153251        0.0000000000000000     
  0.10226714992496092       0.14447035515458984        0.0000000000000000     
  0.10447430677801897       0.15242228203206928        0.0000000000000000     
  0.10651808372976623       0.16046678857695121        0.0000000000000000     
  0.10839848078020276       0.16860387478923564        0.0000000000000000     
  0.11011549792932851       0.17683354066892254        0.0000000000000000     
   9.6430840631434700E-002  0.14405135614272113        0.0000000000000000     
   9.8719348260772860E-002  0.15207938665957629        0.0000000000000000     
  0.10081338398167777       0.16012716560493551        0.0000000000000000     
  0.10271294779414943       0.16819469297879872        0.0000000000000000     
  0.10441803969818783       0.17628196878116592        0.0000000000000000     
   8.9209932004833375E-002  0.14341998559825533        0.0000000000000000     
   9.1407918481551595E-002  0.15149045496978295        0.0000000000000000     
   9.3407848749174252E-002  0.15957880181081507        0.0000000000000000     
   9.5209722807701277E-002  0.16768502612135167        0.0000000000000000     
   9.6813540657132713E-002  0.17580912790139275        0.0000000000000000     
   8.0604424045156914E-002  0.14257624352119247        0.0000000000000000     
   8.2540017440355204E-002  0.15065548696268921        0.0000000000000000     
   8.4301478032255642E-002  0.15882169719458991        0.0000000000000000     
   8.5888805820858297E-002  0.16707487421689446        0.0000000000000000     
   8.7302000806163127E-002  0.17541501802960296        0.0000000000000000     
   7.0614316752405343E-002  0.14152012991153251        0.0000000000000000     
   7.2115645137183632E-002  0.14957448263829509        0.0000000000000000     
   7.3494271830922012E-002  0.15785585175626005        0.0000000000000000     
   7.4750196833620511E-002  0.16636423726542718        0.0000000000000000     
   7.5883420145279101E-002  0.17509963916579668        0.0000000000000000     
   0.0000000000000000        0.0000000000000000        0.0000000000000000     
   2.8872612957699401E-003   1.7175467599241372E-003   0.0000000000000000     
   5.8861143285184447E-003   3.8104743298465237E-003   0.0000000000000000     
   8.9965590982455136E-003   6.2787827097671592E-003   0.0000000000000000     
   1.2218595604951147E-002   9.1224718996860427E-003   0.0000000000000000     
   0.0000000000000000        0.0000000000000000        0.0000000000000000     
   2.6119581919832650E-003   1.5632262087491460E-003   0.0000000000000000     
   5.2902479654237267E-003   3.5064223397854345E-003   0.0000000000000000     
   8.0348693203213858E-003   5.8295883931088668E-003   0.0000000000000000     
   1.0845822256676241E-002   8.5327243687194423E-003   0.0000000000000000     
   0.0000000000000000        0.0000000000000000        0.0000000000000000     
   2.3367671871580790E-003   1.4368914492574015E-003   0.0000000000000000     
   4.7092672487932660E-003   3.2573856200830346E-003   0.0000000000000000     
   7.1175001849055602E-003   5.4614825124769005E-003   0.0000000000000000     
   9.5614659954949607E-003   8.0491821264389966E-003   0.0000000000000000     
   0.0000000000000000        0.0000000000000000        0.0000000000000000     
   2.0616882812943835E-003   1.3385424814489040E-003   0.0000000000000000     
   4.1431721786270624E-003   3.0633641707393231E-003   0.0000000000000000     
   6.2444516919980377E-003   5.1744650678712568E-003   0.0000000000000000     
   8.3655268214073101E-003   7.6718451728447056E-003   0.0000000000000000     
   0.0000000000000000        0.0000000000000000        0.0000000000000000     
   1.7867214743921770E-003   1.2681793053236537E-003   0.0000000000000000     
   3.5919627549251170E-003   2.9243579917543000E-003   0.0000000000000000     
   5.4157238415988200E-003   4.9685360592919385E-003   0.0000000000000000     
   7.2580047344132873E-003   7.4007135079365693E-003   0.0000000000000000     
   1.2218595604951147E-002   9.1224718996860427E-003   0.0000000000000000     
   1.5454845878377499E-002   1.2239372421880289E-002   0.0000000000000000     
   1.8607931948266723E-002   1.5527314798627005E-002   0.0000000000000000     
   2.1677853814618821E-002   1.8986299029926192E-002   0.0000000000000000     
   2.4664611477433790E-002   2.2616325115777852E-002   0.0000000000000000     
   1.0845822256676241E-002   8.5327243687194423E-003   0.0000000000000000     
   1.3668806002743299E-002   1.1533688153981406E-002   0.0000000000000000     
   1.6449519786777569E-002   1.4750337636259001E-002   0.0000000000000000     
   1.9187963608779057E-002   1.8182672815552223E-002   0.0000000000000000     
   2.1884137468747754E-002   2.1830693691861084E-002   0.0000000000000000     
   9.5614659954949607E-003   8.0491821264389966E-003   0.0000000000000000     
   1.2015767154172872E-002   1.0953399252064955E-002   0.0000000000000000     
   1.4455006134550700E-002   1.4107048679450406E-002   0.0000000000000000     
   1.6879182936628438E-002   1.7510130408595344E-002   0.0000000000000000     
   1.9288297560406096E-002   2.1162644439499782E-002   0.0000000000000000     
   8.3655268214073101E-003   7.6718451728447056E-003   0.0000000000000000     
   1.0495729332666220E-002   1.0498505716130936E-002   0.0000000000000000     
   1.2624390991586106E-002   1.3597447928201221E-002   0.0000000000000000     
   1.4751511798166974E-002   1.6968671809055556E-002   0.0000000000000000     
   1.6877091752408816E-002   2.0612177358693935E-002   0.0000000000000000     
   7.2580047344132873E-003   7.4007135079365693E-003   0.0000000000000000     
   9.1086925382233373E-003   1.0169007546179352E-002   0.0000000000000000     
   1.0957674357883794E-002   1.3221535382511444E-002   0.0000000000000000     
   1.2804950193394657E-002   1.6558297016932847E-002   0.0000000000000000     
   1.4650520044755923E-002   2.0179292449443557E-002   0.0000000000000000     
   2.4664611477433790E-002   2.2616325115777852E-002   0.0000000000000000     
   2.7568060243455227E-002   2.6444518805972209E-002   0.0000000000000000     