 <VTKFile type="UnstructuredGrid"  version="0.1"   >
 <UnstructuredGrid>
 <Piece  NumberOfPoints="          1600 "  NumberOfCells="         1024 ">
 <Points>
 <DataArray  type="Float64" NumberOfComponents="3"  format="ascii" >
   0.0000000000000000        0.0000000000000000        0.0000000000000000     
   3.1250000000000000E-002   0.0000000000000000        0.0000000000000000     
   6.2500000000000000E-002   0.0000000000000000        0.0000000000000000     
   9.3750000000000000E-002   0.0000000000000000        0.0000000000000000     
  0.12500000000000000        0.0000000000000000        0.0000000000000000     
   0.0000000000000000        3.1250000000000000E-002   0.0000000000000000     
   3.1250000000000000E-002   3.1250000000000000E-002   0.0000000000000000     
   6.2500000000000000E-002   3.1250000000000000E-002   0.0000000000000000     
   9.3750000000000000E-002   3.1250000000000000E-002   0.0000000000000000     
  0.12500000000000000        3.1250000000000000E-002   0.0000000000000000     
   0.0000000000000000        6.2500000000000000E-002   0.0000000000000000     
   3.1250000000000000E-002   6.2500000000000000E-002   0.0000000000000000     
   6.2500000000000000E-002   6.2500000000000000E-002   0.0000000000000000     
   9.3750000000000000E-002   6.2500000000000000E-002   0.0000000000000000     
  0.12500000000000000        6.2500000000000000E-002   0.0000000000000000     
   0.0000000000000000        9.3750000000000000E-002   0.0000000000000000     
   3.1250000000000000E-002   9.3750000000000000E-002   0.0000000000000000     
   6.2500000000000000E-002   9.3750000000000000E-002   0.0000000000000000     
   9.3750000000000000E-002   9.3750000000000000E-002   0.0000000000000000     
  0.12500000000000000        9.3750000000000000E-002   0.0000000000000000     
   0.0000000000000000       0.12500000000000000        0.0000000000000000     
   3.1250000000000000E-002  0.12500000000000000        0.0000000000000000     
   6.2500000000000000E-002  0.12500000000000000        0.0000000000000000     
   9.3750000000000000E-002  0.12500000000000000        0.0000000000000000     
  0.12500000000000000       0.12500000000000000        0.0000000000000000     
  0.12500000000000000        0.0000000000000000        0.0000000000000000     
  0.15625000000000000        0.0000000000000000        0.0000000000000000     
  0.18750000000000000        0.0000000000000000        0.0000000000000000     
  0.21875000000000000        0.0000000000000000        0.0000000000000000     
  0.25000000000000000        0.0000000000000000        0.0000000000000000     
  0.12500000000000000        3.1250000000000000E-002   0.0000000000000000     
  0.15625000000000000        3.1250000000000000E-002   0.0000000000000000     
  0.18750000000000000        3.1250000000000000E-002   0.0000000000000000     
  0.21875000000000000        3.1250000000000000E-002   0.0000000000000000     
  0.25000000000000000        3.1250000000000000E-002   0.0000000000000000     
  0.12500000000000000        6.2500000000000000E-002   0.0000000000000000     
  0.15625000000000000        6.2500000000000000E-002   0.0000000000000000     
  0.18750000000000000        6.2500000000000000E-002   0.0000000000000000     
  0.21875000000000000        6.2500000000000000E-002   0.0000000000000000     
  0.25000000000000000        6.2500000000000000E-002   0.0000000000000000     
  0.12500000000000000        9.3750000000000000E-002   0.0000000000000000     
  0.15625000000000000        9.3750000000000000E-002   0.0000000000000000     
  0.18750000000000000        9.3750000000000000E-002   0.0000000000000000     
  0.21875000000000000        9.3750000000000000E-002   0.0000000000000000     
  0.25000000000000000        9.3750000000000000E-002   0.0000000000000000     
  0.12500000000000000       0.12500000000000000        0.0000000000000000     
  0.15625000000000000       0.12500000000000000        0.0000000000000000     
  0.18750000000000000       0.12500000000000000        0.0000000000000000     
  0.21875000000000000       0.12500000000000000        0.0000000000000000     
  0.25000000000000000       0.12500000000000000        0.0000000000000000     
  0.25000000000000000        0.0000000000000000        0.0000000000000000     
  0.28125000000000000        0.0000000000000000        0.0000000000000000     
  0.31250000000000000        0.0000000000000000        0.0000000000000000     
  0.34375000000000000        0.0000000000000000        0.0000000000000000     
  0.37500000000000000        0.0000000000000000        0.0000000000000000     
  0.25000000000000000        3.1250000000000000E-002   0.0000000000000000     
  0.28125000000000000        3.1250000000000000E-002   0.0000000000000000     
  0.31250000000000000        3.1250000000000000E-002   0.0000000000000000     
  0.34375000000000000        3.1250000000000000E-002   0.0000000000000000     
  0.37500000000000000        3.1250000000000000E-002   0.0000000000000000     
  0.25000000000000000        6.2500000000000000E-002   0.0000000000000000     
  0.28125000000000000        6.2500000000000000E-002   0.0000000000000000     
  0.31250000000000000        6.2500000000000000E-002   0.0000000000000000     
  0.34375000000000000        6.2500000000000000E-002   0.0000000000000000     
  0.37500000000000000        6.2500000000000000E-002   0.0000000000000000     
  0.25000000000000000        9.3750000000000000E-002   0.0000000000000000     
  0.28125000000000000        9.3750000000000000E-002   0.0000000000000000     
  0.31250000000000000        9.3750000000000000E-002   0.0000000000000000     
  0.34375000000000000        9.3750000000000000E-002   0.0000000000000000     
  0.37500000000000000        9.3750000000000000E-002   0.0000000000000000     
  0.25000000000000000       0.12500000000000000        0.0000000000000000     
  0.28125000000000000       0.12500000000000000        0.0000000000000000     
  0.31250000000000000       0.12500000000000000        0.0000000000000000     
  0.34375000000000000       0.12500000000000000        0.0000000000000000     
  0.37500000000000000       0.12500000000000000        0.0000000000000000     
  0.37500000000000000        0.0000000000000000        0.0000000000000000     
  0.40625000000000000        0.0000000000000000        0.0000000000000000     
  0.43750000000000000        0.0000000000000000        0.0000000000000000     
  0.46875000000000000        0.0000000000000000        0.0000000000000000     
  0.50000000000000000        0.0000000000000000        0.0000000000000000     
  0.37500000000000000        3.1250000000000000E-002   0.0000000000000000     
  0.40625000000000000        3.1250000000000000E-002   0.0000000000000000     
  0.43750000000000000        3.1250000000000000E-002   0.0000000000000000     
  0.46875000000000000        3.1250000000000000E-002   0.0000000000000000     
  0.50000000000000000        3.1250000000000000E-002   0.0000000000000000     
  0.37500000000000000        6.2500000000000000E-002   0.0000000000000000     
  0.40625000000000000        6.2500000000000000E-002   0.0000000000000000     
  0.43750000000000000        6.2500000000000000E-002   0.0000000000000000     
  0.46875000000000000        6.2500000000000000E-002   0.0000000000000000     
  0.50000000000000000        6.2500000000000000E-002   0.0000000000000000     
  0.37500000000000000        9.3750000000000000E-002   0.0000000000000000     
  0.40625000000000000        9.3750000000000000E-002   0.0000000000000000     
  0.43750000000000000        9.3750000000000000E-002   0.0000000000000000     
  0.46875000000000000        9.3750000000000000E-002   0.0000000000000000     
  0.50000000000000000        9.3750000000000000E-002   0.0000000000000000     
  0.37500000000000000       0.12500000000000000        0.0000000000000000     
  0.40625000000000000       0.12500000000000000        0.0000000000000000     
  0.43750000000000000       0.12500000000000000        0.0000000000000000     
  0.46875000000000000       0.12500000000000000        0.0000000000000000     
  0.50000000000000000       0.12500000000000000        0.0000000000000000     
  0.50000000000000000        0.0000000000000000        0.0000000000000000     
  0.53125000000000000        0.0000000000000000        0.0000000000000000     
  0.56250000000000000        0.0000000000000000        0.0000000000000000     
  0.59375000000000000        0.0000000000000000        0.0000000000000000     
  0.62500000000000000        0.0000000000000000        0.0000000000000000     
  0.50000000000000000        3.1250000000000000E-002   0.0000000000000000     
  0.53125000000000000        3.1250000000000000E-002   0.0000000000000000     
  0.56250000000000000        3.1250000000000000E-002   0.0000000000000000     
  0.59375000000000000        3.1250000000000000E-002   0.0000000000000000     
  0.62500000000000000        3.1250000000000000E-002   0.0000000000000000     
  0.50000000000000000        6.2500000000000000E-002   0.0000000000000000     
  0.53125000000000000        6.2500000000000000E-002   0.0000000000000000     
  0.56250000000000000        6.2500000000000000E-002   0.0000000000000000     
  0.59375000000000000        6.2500000000000000E-002   0.0000000000000000     
  0.62500000000000000        6.2500000000000000E-002   0.0000000000000000     
  0.50000000000000000        9.3750000000000000E-002   0.0000000000000000     
  0.53125000000000000        9.3750000000000000E-002   0.0000000000000000     
  0.56250000000000000        9.3750000000000000E-002   0.0000000000000000     
  0.59375000000000000        9.3750000000000000E-002   0.0000000000000000     
  0.62500000000000000        9.3750000000000000E-002   0.0000000000000000     
  0.50000000000000000       0.12500000000000000        0.0000000000000000     
  0.53125000000000000       0.12500000000000000        0.0000000000000000     
  0.56250000000000000       0.12500000000000000        0.0000000000000000     
[...]
 <PointData>
 <DataArray  type="Float64" Name="disp" NumberOfComponents="3" format="ascii">
   0.0000000000000000        0.0000000000000000        0.0000000000000000     
   6.0959099322956557E-003   3.7904503240620401E-003   0.0000000000000000     
   1.1665942641586574E-002   7.3238531095019700E-003   0.0000000000000000     
   1.6710098127872754E-002   1.0600208356319788E-002   0.0000000000000000     
   2.1228376391154199E-002   1.3619516064515495E-002   0.0000000000000000     
   0.0000000000000000        0.0000000000000000        0.0000000000000000     
   4.8911384009217903E-003   3.0221547611069474E-003   0.0000000000000000     
   9.5736264138002632E-003   6.0605323562815307E-003   0.0000000000000000     
   1.4047464038635424E-002   9.1151327855237517E-003   0.0000000000000000     
   1.8312651275427267E-002   1.2185956048833605E-002   0.0000000000000000     
   0.0000000000000000        0.0000000000000000        0.0000000000000000     
   3.9535765492690368E-003   2.4251184798369458E-003   0.0000000000000000     
   7.9106422870213102E-003   5.0628846795059143E-003   0.0000000000000000     
   1.1871197213256818E-002   7.9132985990069057E-003   0.0000000000000000     
   1.5835241327975560E-002   1.0976360238339922E-002   0.0000000000000000     
   0.0000000000000000        0.0000000000000000        0.0000000000000000     
   3.2832243773373987E-003   1.9993414802520352E-003   0.0000000000000000     
   6.6769902612497127E-003   4.3309100791751208E-003   0.0000000000000000     
   1.0181297651736941E-002   6.9947057967692577E-003   0.0000000000000000     
   1.3796146548799085E-002   9.9907286330344451E-003   0.0000000000000000     
   0.0000000000000000        0.0000000000000000        0.0000000000000000     
   2.8800818851268738E-003   1.7448237623522152E-003   0.0000000000000000     
   5.8726703364854714E-003   3.8646085552891491E-003   0.0000000000000000     
   8.9777653540757917E-003   6.3593543788108024E-003   0.0000000000000000     
   1.2195366937897837E-002   9.2290612329171753E-003   0.0000000000000000     
   2.1228376391154199E-002   1.3619516064515495E-002   0.0000000000000000     
   2.5433576873804740E-002   1.6612424620122062E-002   0.0000000000000000     
   2.9538499018198210E-002   1.9809582409172462E-002   0.0000000000000000     
   3.3543142824334612E-002   2.3210989431666693E-002   0.0000000000000000     
   3.7447508292213945E-002   2.6816645687604758E-002   0.0000000000000000     
   1.8312651275427267E-002   1.2185956048833605E-002   0.0000000000000000     
   2.2407365876222770E-002   1.5341382425217825E-002   0.0000000000000000     
   2.6369785593068906E-002   1.8649792193683134E-002   0.0000000000000000     
   3.0199910425965679E-002   2.2111185354229540E-002   0.0000000000000000     
   3.3897740374913089E-002   2.5725561906857035E-002   0.0000000000000000     
   1.5835241327975560E-002   1.0976360238339922E-002   0.0000000000000000     
   1.9730986489077878E-002   1.4210904360338618E-002   0.0000000000000000     
   2.3486644554464090E-002   1.7575765727836649E-002   0.0000000000000000     
   2.7102215524134204E-002   2.1070944340834025E-002   0.0000000000000000     
   3.0577699398088225E-002   2.4696440199330733E-002   0.0000000000000000     
   1.3796146548799085E-002   9.9907286330344451E-003   0.0000000000000000     
   1.7404438712370053E-002   1.3220990425484443E-002   0.0000000000000000     
   2.0889075902383751E-002   1.6587503011633010E-002   0.0000000000000000     
   2.4250058118840189E-002   2.0090266391480142E-002   0.0000000000000000     
   2.7487385361739353E-002   2.3729280565025851E-002   0.0000000000000000     
   1.2195366937897837E-002   9.2290612329171753E-003   0.0000000000000000     
   1.5427722546099306E-002   1.2371640620655301E-002   0.0000000000000000     
   1.8577079636827899E-002   1.5685004045072209E-002   0.0000000000000000     
   2.1643438210083625E-002   1.9169151506167909E-002   0.0000000000000000     
   2.4626798265866476E-002   2.2824083003942383E-002   0.0000000000000000     
   3.7447508292213945E-002   2.6816645687604758E-002   0.0000000000000000     
   4.1256130937488103E-002   3.0621820643146919E-002   0.0000000000000000     
   4.4973546275808962E-002   3.4621783764453441E-002   0.0000000000000000     
   4.8599754307176543E-002   3.8816535051524326E-002   0.0000000000000000     
   5.2134755031590832E-002   4.3206074504359565E-002   0.0000000000000000     
   3.3897740374913089E-002   2.5725561906857035E-002   0.0000000000000000     
   3.7486550694309805E-002   2.9521708888290803E-002   0.0000000000000000     
   4.0989616638554480E-002   3.3528413335256017E-002   0.0000000000000000     
   4.4406938207647143E-002   3.7745675247752686E-002   0.0000000000000000     
   4.7738515401587765E-002   4.2173494625780808E-002   0.0000000000000000     
   3.0577699398088225E-002   2.4696440199330733E-002   0.0000000000000000     
   3.3942573982310986E-002   2.8496798254703758E-002   0.0000000000000000     
   3.7226317082787348E-002   3.2516563458330087E-002   0.0000000000000000     
   4.0428928699517294E-002   3.6755735810209703E-002   0.0000000000000000     
   4.3550408832500831E-002   4.1214315310342628E-002   0.0000000000000000     
   2.7487385361739353E-002   2.3729280565025851E-002   0.0000000000000000     
   3.0624200801491672E-002   2.7547088742385789E-002   0.0000000000000000     
   3.3683647608507554E-002   3.1586234133675631E-002   0.0000000000000000     
   3.6665725782787005E-002   3.5846716738895383E-002   0.0000000000000000     
   3.9570435324330050E-002   4.0328536558045046E-002   0.0000000000000000     
   2.4626798265866476E-002   2.2824083003942383E-002   0.0000000000000000     
   2.7531431151851842E-002   2.6672580351336891E-002   0.0000000000000000     
   3.0361608215715118E-002   3.0737425361292675E-002   0.0000000000000000     
   3.3117329457456289E-002   3.5018618033809720E-002   0.0000000000000000     
   3.5798594877075374E-002   3.9516158368888048E-002   0.0000000000000000     
   5.2134755031590832E-002   4.3206074504359565E-002   0.0000000000000000     
   5.5575235472794415E-002   4.7795105786130110E-002   0.0000000000000000     
   5.8917882654529873E-002   5.2588332560006924E-002   0.0000000000000000     
   6.2162696576797197E-002   5.7585754825989981E-002   0.0000000000000000     
   6.5309677239596395E-002   6.2787372584079307E-002   0.0000000000000000     
   4.7738515401587765E-002   4.2173494625780808E-002   0.0000000000000000     
   5.0979930150687108E-002   4.6805487751448042E-002   0.0000000000000000     
   5.4126764385255870E-002   5.1635270906862069E-002   0.0000000000000000     
   5.7179018105294091E-002   5.6662844092022886E-002   0.0000000000000000     
   6.0136691310801724E-002   6.1888207306930496E-002   0.0000000000000000     
   4.3550408832500831E-002   4.1214315310342628E-002   0.0000000000000000     
   4.6586411639334545E-002   4.5879858257410290E-002   0.0000000000000000     
   4.9532591277615029E-002   5.0739920950094101E-002   0.0000000000000000     
   5.2388947747342235E-002   5.5794503388394083E-002   0.0000000000000000     
   5.5155481048516211E-002   6.1043605572310235E-002   0.0000000000000000     
   3.9570435324330050E-002   4.0328536558045046E-002   0.0000000000000000     
   4.2394679938736760E-002   4.5018217304016846E-002   0.0000000000000000     
   4.5135363331607295E-002   4.9902282689703023E-002   0.0000000000000000     
   4.7792485502941677E-002   5.4980732715103585E-002   0.0000000000000000     
   5.0366046452739871E-002   6.0253567380218517E-002   0.0000000000000000     
   3.5798594877075374E-002   3.9516158368888048E-002   0.0000000000000000     
   3.8404735048893732E-002   4.4220564891267723E-002   0.0000000000000000     
   4.0935080547232737E-002   4.9122356125688826E-002   0.0000000000000000     
   4.3389631372092390E-002   5.4221532072151371E-002   0.0000000000000000     
   4.5768387523472676E-002   5.9518092730655350E-002   0.0000000000000000     
   6.5309677239596395E-002   6.2787372584079307E-002   0.0000000000000000     
   6.8363307479139088E-002   6.8179557641043331E-002   0.0000000000000000     
   7.1328070131636917E-002   7.3748681803650531E-002   0.0000000000000000     
   7.4203965197089869E-002   7.9494745071900880E-002   0.0000000000000000     
   7.6990992675497943E-002   8.5417747445794390E-002   0.0000000000000000     
   6.0136691310801724E-002   6.1888207306930496E-002   0.0000000000000000     
   6.3005223022122872E-002   6.7302331290799752E-002   0.0000000000000000     
   6.5790052259601578E-002   7.2896186782845485E-002   0.0000000000000000     
   6.8491179023237841E-002   7.8669773783067720E-002   0.0000000000000000     
   7.1108603313031662E-002   8.4623092291466445E-002   0.0000000000000000     
   5.5155481048516211E-002   6.1043605572310235E-002   0.0000000000000000     
   5.7837748395840355E-002   6.6480646071171406E-002   0.0000000000000000     
   6.0441307004018043E-002   7.2099043454306469E-002   0.0000000000000000     
   6.2966156873049281E-002   7.7898797721715443E-002   0.0000000000000000     
   6.5412298002934091E-002   8.3879908873398287E-002   0.0000000000000000     
   5.0366046452739871E-002   6.0253567380218517E-002   0.0000000000000000     
   5.2860883600291522E-002   6.5714501982158322E-002   0.0000000000000000     
   5.5281834364886318E-002   7.1357251818033512E-002   0.0000000000000000     
   5.7628898746524215E-002   7.7181816887844035E-002   0.0000000000000000     
   5.9902076745205229E-002   8.3188197191589944E-002   0.0000000000000000     
   4.5768387523472676E-002   5.9518092730655350E-002   0.0000000000000000     
   4.8074628635476416E-002   6.5003899023760511E-002   0.0000000000000000     
   5.0311634342206403E-002   7.0670811874026560E-002   0.0000000000000000     
   5.2479404643662624E-002   7.6518831281453523E-002   0.0000000000000000     
   5.4577939539845091E-002   8.2547957246041401E-002   0.0000000000000000     
   7.6990992675497943E-002   8.5417747445794390E-002   0.0000000000000000     
   7.9679830621642730E-002   9.1509148128028989E-002   0.0000000000000000     
   8.2261157090305806E-002   9.7760406321302590E-002   0.0000000000000000     
   8.4734972081487128E-002  0.10417152202561521        0.0000000000000000     
   8.7101275595186739E-002  0.11074249524096683        0.0000000000000000     
   7.1108603313031662E-002   8.4623092291466445E-002   0.0000000000000000     
   7.3633218218187038E-002   9.0745331675327542E-002   0.0000000000000000     
   7.6055916827907966E-002   9.7025681301936950E-002   0.0000000000000000     
   7.8376699142194431E-002  0.10346414117129464        0.0000000000000000     
   8.0595565161046434E-002  0.11006071128340063        0.0000000000000000     
   6.5412298002934091E-002   8.3879908873398287E-002   0.0000000000000000     
   6.7771143475198484E-002   9.0030223271365006E-002   0.0000000000000000     
   7.0034106371368518E-002   9.6337587277625605E-002   0.0000000000000000     
   7.2201186691444180E-002  0.10280200089218008        0.0000000000000000     
   7.4272384435425498E-002  0.10942346411502843        0.0000000000000000     
   5.9902076745205229E-002   8.3188197191589944E-002   0.0000000000000000     
   6.2093606392677081E-002   8.9363822916141381E-002   0.0000000000000000     
   6.4195725720687477E-002   9.5696124248368597E-002   0.0000000000000000     
   6.6208434729236418E-002  0.10218510118827150        0.0000000000000000     
   6.8131733418323917E-002  0.10883075373585017        0.0000000000000000     
   5.4577939539845091E-002   8.2547957246041401E-002   0.0000000000000000     
   5.6600606970622830E-002   8.8746130609656665E-002   0.0000000000000000     
   5.8540774875864836E-002   9.5101292214165842E-002   0.0000000000000000     
   6.0398443255571130E-002  0.10161344205956893        0.0000000000000000     
   6.2173612109741719E-002  0.10828258014586589        0.0000000000000000     
   8.7101275595186739E-002  0.11074249524096683        0.0000000000000000     
   8.9375238329924542E-002  0.11745935970337244        0.0000000000000000     
   9.1572030984220468E-002  0.12430814914884709        0.0000000000000000     
   9.3691653558074461E-002  0.13128886357739075        0.0000000000000000     
   9.5734106051486592E-002  0.13840150298900342        0.0000000000000000     
   8.0595565161046434E-002  0.11006071128340063        0.0000000000000000     
   8.2728343521014158E-002  0.11680307907721288        0.0000000000000000     
   8.4790862858647773E-002  0.12367893199168933        0.0000000000000000     
   8.6783123173947277E-002  0.13068827002683001        0.0000000000000000     
   8.8705124466912671E-002  0.13783109318263487        0.0000000000000000     
   7.4272384435425498E-002  0.10942346411502843        0.0000000000000000     
   7.6263274835349532E-002  0.11619065981289424        0.0000000000000000     
   7.8189433123253410E-002  0.12309227085250110        0.0000000000000000     
   8.0050859299137134E-002  0.13012829723384900        0.0000000000000000     
   8.1847553363000689E-002  0.13729873895693800        0.0000000000000000     
   6.8131733418323917E-002  0.10883075373585017        0.0000000000000000     
   6.9980032272930662E-002  0.11562210191041648        0.0000000000000000     
   7.1767741778037353E-002  0.12254816573128237        0.0000000000000000     
   7.3494861933644018E-002  0.12960894519844782        0.0000000000000000     
   7.5161392739750657E-002  0.13680444031191283        0.0000000000000000     
   6.2173612109741719E-002  0.10828258014586589        0.0000000000000000     
   6.3878615833757563E-002  0.11509740536977968        0.0000000000000000     
   6.5525788822999642E-002  0.12204661662803318        0.0000000000000000     
   6.7115131077467985E-002  0.12913021392062640        0.0000000000000000     
   6.8646642597162577E-002  0.13634819724755937        0.0000000000000000     
   9.5734106051486592E-002  0.13840150298900342        0.0000000000000000     
   9.7674357059010924E-002  0.14563543134485421        0.0000000000000000     
   9.9487375175201551E-002  0.15298001260611227        0.0000000000000000     
  0.10117316040005850       0.16043524677277757        0.0000000000000000     
  0.10273171273358175       0.16800113384485005        0.0000000000000000     
   8.8705124466912671E-002  0.13783109318263487        0.0000000000000000     
   9.0531203936029300E-002  0.14509479492403834        0.0000000000000000     
   9.2235698779782549E-002  0.15246676871597492        0.0000000000000000     
   9.3818608998172390E-002  0.15994701455844446        0.0000000000000000     
   9.5279934591198850E-002  0.16753553245144709        0.0000000000000000     
   8.1847553363000689E-002  0.13729873895693800        0.0000000000000000     
   8.3554362216625586E-002  0.14458990692374579        0.0000000000000000     
   8.5146132761793281E-002  0.15198811203625015        0.0000000000000000     
   8.6622864998503815E-002  0.15949335429445102        0.0000000000000000     
   8.7984558926757189E-002  0.16710563369834844        0.0000000000000000     
   7.5161392739750657E-002  0.13680444031191283        0.0000000000000000     
   7.6743831900799725E-002  0.14412076734397652        0.0000000000000000     
   7.8218677121233773E-002  0.15154404256693796        0.0000000000000000     
   7.9585928401052802E-002  0.15907426598079716        0.0000000000000000     
   8.0845585740256770E-002  0.16671143758555415        0.0000000000000000     
   6.8646642597162577E-002  0.13634819724755937        0.0000000000000000     
   7.0099612988551788E-002  0.14368737618473054        0.0000000000000000     
   7.1453331858104041E-002  0.15113456030803840        0.0000000000000000     
   7.2707799205819296E-002  0.15868974961748292        0.0000000000000000     
   7.3863015031697593E-002  0.16635294411306417        0.0000000000000000     
   0.0000000000000000        0.0000000000000000        0.0000000000000000     
   2.8800818851268738E-003   1.7448237623522152E-003   0.0000000000000000     
   5.8726703364854714E-003   3.8646085552891491E-003   0.0000000000000000     
   8.9777653540757917E-003   6.3593543788108024E-003   0.0000000000000000     
   1.2195366937897837E-002   9.2290612329171753E-003   0.0000000000000000     
   0.0000000000000000        0.0000000000000000        0.0000000000000000     
   2.6103186831197751E-003   1.5889078783341655E-003   0.0000000000000000     
   5.2897215041942669E-003   3.5566688140196635E-003   0.0000000000000000     
   8.0382084632234750E-003   5.9032828070564930E-003   0.0000000000000000     
   1.0855779560207401E-002   8.6287498574446550E-003   0.0000000000000000     
   0.0000000000000000        0.0000000000000000        0.0000000000000000     
   2.3401043817984162E-003   1.4589363803945666E-003   0.0000000000000000     
   4.7201827558417831E-003   3.2997795615383263E-003   0.0000000000000000     
   7.1402351221301012E-003   5.5225295434312791E-003   0.0000000000000000     
   9.6002614806633690E-003   8.1271863260734250E-003   0.0000000000000000     
   0.0000000000000000        0.0000000000000000        0.0000000000000000     
   2.0694389811627971E-003   1.3549092685334176E-003   0.0000000000000000     
   4.1640540914280192E-003   3.0939407978451384E-003   0.0000000000000000     
   6.2838453307956657E-003   5.2170945879351617E-003   0.0000000000000000     
   8.4288126992657381E-003   7.7243706388034879E-003   0.0000000000000000     
   0.0000000000000000        0.0000000000000000        0.0000000000000000     
   1.7983224812129169E-003   1.2768265427507189E-003   0.0000000000000000     
   3.6213355109529742E-003   2.9391525229400988E-003   0.0000000000000000     
   5.4690390892201722E-003   4.9869779405681399E-003   0.0000000000000000     
   7.3414332160145106E-003   7.4203027956348420E-003   0.0000000000000000     
   1.2195366937897837E-002   9.2290612329171753E-003   0.0000000000000000     
   1.5427722546099306E-002   1.2371640620655301E-002   0.0000000000000000     
   1.8577079636827899E-002   1.5685004045072209E-002   0.0000000000000000     
   2.1643438210083625E-002   1.9169151506167909E-002   0.0000000000000000     
   2.4626798265866476E-002   2.2824083003942383E-002   0.0000000000000000     
   1.0855779560207401E-002   8.6287498574446550E-003   0.0000000000000000     
   1.3689066709047902E-002   1.1650780364101518E-002   0.0000000000000000     
   1.6484701823646836E-002   1.4887084725944456E-002   0.0000000000000000     
   1.9242684904004201E-002   1.8337662942973471E-002   0.0000000000000000     
   2.1963015950120002E-002   2.2002515015188552E-002   0.0000000000000000     
   9.6002614806633690E-003   8.1271863260734250E-003   0.0000000000000000     
   1.2076699919998112E-002   1.1046335074073427E-002   0.0000000000000000     
   1.4545988528690854E-002   1.4212560952039956E-002   0.0000000000000000     
   1.7008127306741599E-002   1.7625863959973006E-002   0.0000000000000000     
   1.9463116254150346E-002   2.1286244097872574E-002   0.0000000000000000     
   8.4288126992657381E-003   7.7243706388034879E-003   0.0000000000000000     
   1.0590622178949936E-002   1.0558304750571032E-002   0.0000000000000000     
   1.2760939751959967E-002   1.3661432723358700E-002   0.0000000000000000     
   1.4939765418295819E-002   1.7033754557166506E-002   0.0000000000000000     
   1.7127099177957503E-002   2.0675270251994438E-002   0.0000000000000000     
   7.3414332160145106E-003   7.4203027956348420E-003   0.0000000000000000     
   9.2308334859033756E-003   1.0186689393594323E-002   0.0000000000000000     
   1.1129555493454159E-002   1.3233700039900702E-002   0.0000000000000000     
   1.3037599238666856E-002   1.6561334734553981E-002   0.0000000000000000     
   1.4954964721541470E-002   2.0169593477554152E-002   0.0000000000000000     
   2.4626798265866476E-002   2.2824083003942383E-002   0.0000000000000000     
   2.7531431151851842E-002   2.6672580351336891E-002   0.0000000000000000     