 <VTKFile type="UnstructuredGrid"  version="0.1"   >
 <UnstructuredGrid>
 <Piece  NumberOfPoints="           400 "  NumberOfCells="          256 ">
 <Points>
 <DataArray  type="Float64" NumberOfComponents="3"  format="ascii" >
   0.0000000000000000        0.0000000000000000        0.0000000000000000     
   6.2500000000000000E-002   0.0000000000000000        0.0000000000000000     
  0.12500000000000000        0.0000000000000000        0.0000000000000000     
  0.18750000000000000        0.0000000000000000        0.0000000000000000     
  0.25000000000000000        0.0000000000000000        0.0000000000000000     
   0.0000000000000000        6.2500000000000000E-002   0.0000000000000000     
   6.2500000000000000E-002   6.2500000000000000E-002   0.0000000000000000     
  0.12500000000000000        6.2500000000000000E-002   0.0000000000000000     
  0.18750000000000000        6.2500000000000000E-002   0.0000000000000000     
  0.25000000000000000        6.2500000000000000E-002   0.0000000000000000     
   0.0000000000000000       0.12500000000000000        0.0000000000000000     
   6.2500000000000000E-002  0.12500000000000000        0.0000000000000000     
  0.12500000000000000       0.12500000000000000        0.0000000000000000     
  0.18750000000000000       0.12500000000000000        0.0000000000000000     
  0.25000000000000000       0.12500000000000000        0.0000000000000000     
   0.0000000000000000       0.18750000000000000        0.0000000000000000     
   6.2500000000000000E-002  0.18750000000000000        0.0000000000000000     
  0.12500000000000000       0.18750000000000000        0.0000000000000000     
  0.18750000000000000       0.18750000000000000        0.0000000000000000     
  0.25000000000000000       0.18750000000000000        0.0000000000000000     
   0.0000000000000000       0.25000000000000000        0.0000000000000000     
   6.2500000000000000E-002  0.25000000000000000        0.0000000000000000     
  0.12500000000000000       0.25000000000000000        0.0000000000000000     
  0.18750000000000000       0.25000000000000000        0.0000000000000000     
  0.25000000000000000       0.25000000000000000        0.0000000000000000     
  0.25000000000000000        0.0000000000000000        0.0000000000000000     
  0.31250000000000000        0.0000000000000000        0.0000000000000000     
  0.37500000000000000        0.0000000000000000        0.0000000000000000     
  0.43750000000000000        0.0000000000000000        0.0000000000000000     
  0.50000000000000000        0.0000000000000000        0.0000000000000000     
  0.25000000000000000        6.2500000000000000E-002   0.0000000000000000     
  0.31250000000000000        6.2500000000000000E-002   0.0000000000000000     
  0.37500000000000000        6.2500000000000000E-002   0.0000000000000000     
  0.43750000000000000        6.2500000000000000E-002   0.0000000000000000     
  0.50000000000000000        6.2500000000000000E-002   0.0000000000000000     
  0.25000000000000000       0.12500000000000000        0.0000000000000000     
  0.31250000000000000       0.12500000000000000        0.0000000000000000     
  0.37500000000000000       0.12500000000000000        0.0000000000000000     
  0.43750000000000000       0.12500000000000000        0.0000000000000000     
  0.50000000000000000       0.12500000000000000        0.0000000000000000     
  0.25000000000000000       0.18750000000000000        0.0000000000000000     
  0.31250000000000000       0.18750000000000000        0.0000000000000000     
  0.37500000000000000       0.18750000000000000        0.0000000000000000     
  0.43750000000000000       0.18750000000000000        0.0000000000000000     
  0.50000000000000000       0.18750000000000000        0.0000000000000000     
  0.25000000000000000       0.25000000000000000        0.0000000000000000     
  0.31250000000000000       0.25000000000000000        0.0000000000000000     
  0.37500000000000000       0.25000000000000000        0.0000000000000000     
  0.43750000000000000       0.25000000000000000        0.0000000000000000     
  0.50000000000000000       0.25000000000000000        0.0000000000000000     
  0.50000000000000000        0.0000000000000000        0.0000000000000000     
  0.56250000000000000        0.0000000000000000        0.0000000000000000     
  0.62500000000000000        0.0000000000000000        0.0000000000000000     
  0.68750000000000000        0.0000000000000000        0.0000000000000000     
  0.75000000000000000        0.0000000000000000        0.0000000000000000     
  0.50000000000000000        6.2500000000000000E-002   0.0000000000000000     
  0.56250000000000000        6.2500000000000000E-002   0.0000000000000000     
  0.62500000000000000        6.2500000000000000E-002   0.0000000000000000     
  0.68750000000000000        6.2500000000000000E-002   0.0000000000000000     
  0.75000000000000000        6.2500000000000000E-002   0.0000000000000000     
  0.50000000000000000       0.12500000000000000        0.0000000000000000     
  0.56250000000000000       0.12500000000000000        0.0000000000000000     
  0.62500000000000000       0.12500000000000000        0.0000000000000000     
  0.68750000000000000       0.12500000000000000        0.0000000000000000     
  0.75000000000000000       0.12500000000000000        0.0000000000000000     
  0.50000000000000000       0.18750000000000000        0.0000000000000000     
  0.56250000000000000       0.18750000000000000        0.0000000000000000     
  0.62500000000000000       0.18750000000000000        0.0000000000000000     
  0.68750000000000000       0.18750000000000000        0.0000000000000000     
  0.75000000000000000       0.18750000000000000        0.0000000000000000     
  0.50000000000000000       0.25000000000000000        0.0000000000000000     
  0.56250000000000000       0.25000000000000000        0.0000000000000000     
  0.62500000000000000       0.25000000000000000        0.0000000000000000     
  0.68750000000000000       0.25000000000000000        0.0000000000000000     
  0.75000000000000000       0.25000000000000000        0.0000000000000000     
  0.75000000000000000        0.0000000000000000        0.0000000000000000     
  0.81250000000000000        0.0000000000000000        0.0000000000000000     
  0.87500000000000000        0.0000000000000000        0.0000000000000000     
  0.93750000000000000        0.0000000000000000        0.0000000000000000     
   1.0000000000000000        0.0000000000000000        0.0000000000000000     
  0.75000000000000000        6.2500000000000000E-002   0.0000000000000000     
  0.81250000000000000        6.2500000000000000E-002   0.0000000000000000     
  0.87500000000000000        6.2500000000000000E-002   0.0000000000000000     
  0.93750000000000000        6.2500000000000000E-002   0.0000000000000000     
   1.0000000000000000        6.2500000000000000E-002   0.0000000000000000     
  0.75000000000000000       0.12500000000000000        0.0000000000000000     
  0.81250000000000000       0.12500000000000000        0.0000000000000000     
  0.87500000000000000       0.12500000000000000        0.0000000000000000     
  0.93750000000000000       0.12500000000000000        0.0000000000000000     
   1.0000000000000000       0.12500000000000000        0.0000000000000000     
  0.75000000000000000       0.18750000000000000        0.0000000000000000     
  0.81250000000000000       0.18750000000000000        0.0000000000000000     
  0.87500000000000000       0.18750000000000000        0.0000000000000000     
  0.93750000000000000       0.18750000000000000        0.0000000000000000     
   1.0000000000000000       0.18750000000000000        0.0000000000000000     
  0.75000000000000000       0.25000000000000000        0.0000000000000000     
  0.81250000000000000       0.25000000000000000        0.0000000000000000     
  0.87500000000000000       0.25000000000000000        0.0000000000000000     
  0.93750000000000000       0.25000000000000000        0.0000000000000000     
   1.0000000000000000       0.25000000000000000        0.0000000000000000     
   0.0000000000000000       0.25000000000000000        0.0000000000000000     
   6.2500000000000000E-002  0.25000000000000000        0.0000000000000000     
  0.12500000000000000       0.25000000000000000        0.0000000000000000     
  0.18750000000000000       0.25000000000000000        0.0000000000000000     
  0.25000000000000000       0.25000000000000000        0.0000000000000000     
   0.0000000000000000       0.31250000000000000        0.0000000000000000     
   6.2500000000000000E-002  0.31250000000000000        0.0000000000000000     
  0.12500000000000000       0.31250000000000000        0.0000000000000000     
  0.18750000000000000       0.31250000000000000        0.0000000000000000     
  0.25000000000000000       0.31250000000000000        0.0000000000000000     
   0.0000000000000000       0.37500000000000000        0.0000000000000000     
   6.2500000000000000E-002  0.37500000000000000        0.0000000000000000     
  0.12500000000000000       0.37500000000000000        0.0000000000000000     
  0.18750000000000000       0.37500000000000000        0.0000000000000000     
  0.25000000000000000       0.37500000000000000        0.0000000000000000     
   0.0000000000000000       0.43750000000000000        0.0000000000000000     
   6.2500000000000000E-002  0.43750000000000000        0.0000000000000000     
  0.12500000000000000       0.43750000000000000        0.0000000000000000     
  0.18750000000000000       0.43750000000000000        0.0000000000000000     
  0.25000000000000000       0.43750000000000000        0.0000000000000000     
   0.0000000000000000       0.50000000000000000        0.0000000000000000     
   6.2500000000000000E-002  0.50000000000000000        0.0000000000000000     
  0.12500000000000000       0.50000000000000000        0.0000000000000000     
[...]
 <PointData>
 <DataArray  type="Float64" Name="disp" NumberOfComponents="3" format="ascii">
   0.0000000000000000        0.0000000000000000        0.0000000000000000     
   0.0000000000000000       -5.3309419219775988E-021   0.0000000000000000     
   0.0000000000000000       -2.1323767687910395E-020   0.0000000000000000     
   0.0000000000000000       -4.7978477297798390E-020   0.0000000000000000     
   0.0000000000000000       -8.5295070751641581E-020   0.0000000000000000     
   0.0000000000000000        0.0000000000000000        0.0000000000000000     
   0.0000000000000000       -3.8667709619355227E-021   0.0000000000000000     
   0.0000000000000000       -1.5467083847742091E-020   0.0000000000000000     
   0.0000000000000000       -3.4800938657419702E-020   0.0000000000000000     
   0.0000000000000000       -6.1868335390968362E-020   0.0000000000000000     
   0.0000000000000000        0.0000000000000000        0.0000000000000000     
   0.0000000000000000       -2.4039765009759779E-021   0.0000000000000000     
   0.0000000000000000       -9.6159060039039117E-021   0.0000000000000000     
   0.0000000000000000       -2.1635788508783803E-020   0.0000000000000000     
   0.0000000000000000       -3.8463624015615647E-020   0.0000000000000000     
   0.0000000000000000        0.0000000000000000        0.0000000000000000     
   0.0000000000000000       -9.4255853909896556E-022   0.0000000000000000     
   0.0000000000000000       -3.7702341563958622E-021   0.0000000000000000     
   0.0000000000000000       -8.4830268518906883E-021   0.0000000000000000     
   0.0000000000000000       -1.5080936625583449E-020   0.0000000000000000     
   0.0000000000000000        0.0000000000000000        0.0000000000000000     
   0.0000000000000000        5.1748292369551522E-022   0.0000000000000000     
   0.0000000000000000        2.0699316947820609E-021   0.0000000000000000     
   0.0000000000000000        4.6573463132596353E-021   0.0000000000000000     
   0.0000000000000000        8.2797267791282436E-021   0.0000000000000000     
   0.0000000000000000       -8.5295070751641581E-020   0.0000000000000000     
   0.0000000000000000       -1.1980848896923337E-019   0.0000000000000000     
   0.0000000000000000       -1.3805367287036710E-019   0.0000000000000000     
   0.0000000000000000       -1.4003062245504285E-019   0.0000000000000000     
   0.0000000000000000       -1.2573933772326057E-019   0.0000000000000000     
   0.0000000000000000       -6.1868335390968362E-020   0.0000000000000000     
   0.0000000000000000       -8.2709931253600561E-020   0.0000000000000000     
   0.0000000000000000       -8.3366383450528770E-020   0.0000000000000000     
   0.0000000000000000       -6.3837691981753025E-020   0.0000000000000000     
   0.0000000000000000       -2.4123856847273297E-020   0.0000000000000000     
   0.0000000000000000       -3.8463624015615647E-020   0.0000000000000000     
   0.0000000000000000       -4.7769339224283202E-020   0.0000000000000000     
   0.0000000000000000       -3.7222860834670207E-020   0.0000000000000000     
   0.0000000000000000       -6.8241888467766749E-021   0.0000000000000000     
   0.0000000000000000        4.3426676739397394E-020   0.0000000000000000     
   0.0000000000000000       -1.5080936625583449E-020   0.0000000000000000     
   0.0000000000000000       -1.4986712881281309E-020   0.0000000000000000     
   0.0000000000000000        3.7689497720856169E-022   0.0000000000000000     
   0.0000000000000000        3.1009886949886155E-020   0.0000000000000000     
   0.0000000000000000        7.6912263036751482E-020   0.0000000000000000     
   0.0000000000000000        8.2797267791282436E-021   0.0000000000000000     
   0.0000000000000000        1.5637947775405126E-020   0.0000000000000000     
   0.0000000000000000        2.9432883985107544E-020   0.0000000000000000     
   0.0000000000000000        4.9664535408235495E-020   0.0000000000000000     
   0.0000000000000000        7.6332902044788960E-020   0.0000000000000000     
   0.0000000000000000       -1.2573933772326057E-019   0.0000000000000000     
   0.0000000000000000       -1.1255414592774918E-019   0.0000000000000000     
   0.0000000000000000       -1.1784937432123760E-019   0.0000000000000000     
   0.0000000000000000       -1.4162502290372585E-019   0.0000000000000000     
   0.0000000000000000       -1.8388109167521392E-019   0.0000000000000000     
   0.0000000000000000       -2.4123856847273297E-020   0.0000000000000000     
   0.0000000000000000        6.4614296765675036E-021   0.0000000000000000     
   0.0000000000000000       -1.3955246865736186E-021   0.0000000000000000     
   0.0000000000000000       -4.7694719936696616E-020   0.0000000000000000     
   0.0000000000000000       -1.3243615607380149E-019   0.0000000000000000     
   0.0000000000000000        4.3426676739397394E-020   0.0000000000000000     
   0.0000000000000000        8.0700758409926247E-020   0.0000000000000000     
   0.0000000000000000        7.2169078650884082E-020   0.0000000000000000     
   0.0000000000000000        1.7831637462270924E-020   0.0000000000000000     
   0.0000000000000000       -8.2311565155913270E-020   0.0000000000000000     
   0.0000000000000000        7.6912263036751482E-020   0.0000000000000000     
   0.0000000000000000        1.1016384027232707E-019   0.0000000000000000     
   0.0000000000000000        1.0284443569113548E-019   0.0000000000000000     
   0.0000000000000000        5.4954049293176711E-020   0.0000000000000000     
   0.0000000000000000       -3.3507318921549200E-020   0.0000000000000000     
   0.0000000000000000        7.6332902044788960E-020   0.0000000000000000     
   0.0000000000000000        9.4850675263769990E-020   0.0000000000000000     
   0.0000000000000000        9.0630546434180611E-020   0.0000000000000000     
   0.0000000000000000        6.3672515556020825E-020   0.0000000000000000     
   0.0000000000000000        1.3976582629290632E-020   0.0000000000000000     
   0.0000000000000000       -1.8388109167521392E-019   0.0000000000000000     
   0.0000000000000000       -9.0282237495630602E-020   0.0000000000000000     
   0.0000000000000000        2.9350688277509530E-019   0.0000000000000000     
   0.0000000000000000        9.6748626913696382E-019   0.0000000000000000     
   0.0000000000000000        1.9316559215899749E-018   0.0000000000000000     
   0.0000000000000000       -1.3243615607380149E-019   0.0000000000000000     
   0.0000000000000000       -1.3411853705083015E-019   0.0000000000000000     
   0.0000000000000000        6.8759433179275546E-020   0.0000000000000000     
   0.0000000000000000        4.7619775461651557E-019   0.0000000000000000     
   0.0000000000000000        1.0881964272608900E-018   0.0000000000000000     
   0.0000000000000000       -8.2311565155913270E-020   0.0000000000000000     
   0.0000000000000000       -1.4063619168841340E-019   0.0000000000000000     
   0.0000000000000000       -6.9517904619974415E-020   0.0000000000000000     
   0.0000000000000000        1.3104329604940366E-019   0.0000000000000000     
   0.0000000000000000        4.6104741031972080E-019   0.0000000000000000     
   0.0000000000000000       -3.3507318921549200E-020   0.0000000000000000     
   0.0000000000000000       -1.0983520140838035E-019   0.0000000000000000     
   0.0000000000000000       -1.2132513062265458E-019   0.0000000000000000     
   0.0000000000000000       -6.7977106564372011E-020   0.0000000000000000     
   0.0000000000000000        5.0208870766467434E-020   0.0000000000000000     
   0.0000000000000000        1.3976582629290632E-020   0.0000000000000000     
   0.0000000000000000       -4.1715566210730960E-020   0.0000000000000000     
   0.0000000000000000       -8.6662244828764965E-020   0.0000000000000000     
   0.0000000000000000       -1.2086345322481139E-019   0.0000000000000000     
   0.0000000000000000       -1.4431919139887017E-019   0.0000000000000000     
   0.0000000000000000        0.0000000000000000        0.0000000000000000     
   0.0000000000000000        5.1748292369551522E-022   0.0000000000000000     
   0.0000000000000000        2.0699316947820609E-021   0.0000000000000000     
   0.0000000000000000        4.6573463132596353E-021   0.0000000000000000     
   0.0000000000000000        8.2797267791282436E-021   0.0000000000000000     
   0.0000000000000000        0.0000000000000000        0.0000000000000000     
   0.0000000000000000        1.9455396334372476E-021   0.0000000000000000     
   0.0000000000000000        7.7821585337489903E-021   0.0000000000000000     
   0.0000000000000000        1.7509856700935228E-020   0.0000000000000000     
   0.0000000000000000        3.1128634134995961E-020   0.0000000000000000     
   0.0000000000000000        0.0000000000000000        0.0000000000000000     
   0.0000000000000000        3.3110033361560155E-021   0.0000000000000000     
   0.0000000000000000        1.3244013344624062E-020   0.0000000000000000     
   0.0000000000000000        2.9799030025404143E-020   0.0000000000000000     
   0.0000000000000000        5.2976053378496247E-020   0.0000000000000000     
   0.0000000000000000        0.0000000000000000        0.0000000000000000     
   0.0000000000000000        4.6138740318518194E-021   0.0000000000000000     
   0.0000000000000000        1.8455496127407278E-020   0.0000000000000000     
   0.0000000000000000        4.1524866286666375E-020   0.0000000000000000     
   0.0000000000000000        7.3821984509629110E-020   0.0000000000000000     
   0.0000000000000000        0.0000000000000000        0.0000000000000000     
   0.0000000000000000        5.8541517205246594E-021   0.0000000000000000     
   0.0000000000000000        2.3416606882098638E-020   0.0000000000000000     
   0.0000000000000000        5.2687365484721933E-020   0.0000000000000000     
   0.0000000000000000        9.3666427528394551E-020   0.0000000000000000     
   0.0000000000000000        8.2797267791282436E-021   0.0000000000000000     
   0.0000000000000000        1.5637947775405126E-020   0.0000000000000000     
   0.0000000000000000        2.9432883985107544E-020   0.0000000000000000     
   0.0000000000000000        4.9664535408235495E-020   0.0000000000000000     
   0.0000000000000000        7.6332902044788960E-020   0.0000000000000000     
   0.0000000000000000        3.1128634134995961E-020   0.0000000000000000     
   0.0000000000000000        4.5435840584227936E-020   0.0000000000000000     
   0.0000000000000000        5.7228825796927897E-020   0.0000000000000000     
   0.0000000000000000        6.6507589773095853E-020   0.0000000000000000     
   0.0000000000000000        7.3272132512731765E-020   0.0000000000000000     
   0.0000000000000000        5.2976053378496247E-020   0.0000000000000000     
   0.0000000000000000        7.5738163383638944E-020   0.0000000000000000     
   0.0000000000000000        9.1048440020570775E-020   0.0000000000000000     
   0.0000000000000000        9.8906883289291747E-020   0.0000000000000000     
   0.0000000000000000        9.9313493189801871E-020   0.0000000000000000     
   0.0000000000000000        7.3821984509629110E-020   0.0000000000000000     
   0.0000000000000000        1.0654491617363815E-019   0.0000000000000000     
   0.0000000000000000        1.3089172665603620E-019   0.0000000000000000     
   0.0000000000000000        1.4686241595682320E-019   0.0000000000000000     
   0.0000000000000000        1.5445698407599922E-019   0.0000000000000000     
   0.0000000000000000        9.3666427528394551E-020   0.0000000000000000     
   0.0000000000000000        1.3785609895422557E-019   0.0000000000000000     
   0.0000000000000000        1.7675868570332414E-019   0.0000000000000000     
   0.0000000000000000        2.1037418777569022E-019   0.0000000000000000     
   0.0000000000000000        2.3870260517132383E-019   0.0000000000000000     
   0.0000000000000000        7.6332902044788960E-020   0.0000000000000000     
   0.0000000000000000        9.4850675263769990E-020   0.0000000000000000     
   0.0000000000000000        9.0630546434180611E-020   0.0000000000000000     
   0.0000000000000000        6.3672515556020825E-020   0.0000000000000000     
   0.0000000000000000        1.3976582629290632E-020   0.0000000000000000     
   0.0000000000000000        7.3272132512731765E-020   0.0000000000000000     
   0.0000000000000000        7.7203800727374641E-020   0.0000000000000000     
   0.0000000000000000        7.7983941128563413E-020   0.0000000000000000     
   0.0000000000000000        7.5612553716298058E-020   0.0000000000000000     
   0.0000000000000000        7.0089638490578575E-020   0.0000000000000000     
   0.0000000000000000        9.9313493189801871E-020   0.0000000000000000     
   0.0000000000000000        9.9665754006260694E-020   0.0000000000000000     
   0.0000000000000000        1.0736115002282779E-019   0.0000000000000000     
   0.0000000000000000        1.2239968123950318E-019   0.0000000000000000     
   0.0000000000000000        1.4478134765628689E-019   0.0000000000000000     
   0.0000000000000000        1.5445698407599922E-019   0.0000000000000000     
   0.0000000000000000        1.6223653510042810E-019   0.0000000000000000     
   0.0000000000000000        1.7876217311697379E-019   0.0000000000000000     
   0.0000000000000000        2.0403389812563629E-019   0.0000000000000000     
   0.0000000000000000        2.3805171012641557E-019   0.0000000000000000     
   0.0000000000000000        2.3870260517132383E-019   0.0000000000000000     
   0.0000000000000000        2.6491614400987689E-019   0.0000000000000000     
   0.0000000000000000        2.9218701041100139E-019   0.0000000000000000     
   0.0000000000000000        3.2051520437469729E-019   0.0000000000000000     
   0.0000000000000000        3.4990072590096464E-019   0.0000000000000000     
   0.0000000000000000        1.3976582629290632E-020   0.0000000000000000     
   0.0000000000000000       -4.1715566210730960E-020   0.0000000000000000     
   0.0000000000000000       -8.6662244828764965E-020   0.0000000000000000     
   0.0000000000000000       -1.2086345322481139E-019   0.0000000000000000     
   0.0000000000000000       -1.4431919139887017E-019   0.0000000000000000     
   0.0000000000000000        7.0089638490578575E-020   0.0000000000000000     
   0.0000000000000000        4.8775826045781090E-020   0.0000000000000000     
   0.0000000000000000       -9.6825302371836732E-022   0.0000000000000000     
   0.0000000000000000       -7.9142598717919773E-020   0.0000000000000000     
   0.0000000000000000       -1.8574721103682310E-019   0.0000000000000000     
   0.0000000000000000        1.4478134765628689E-019   0.0000000000000000     
   0.0000000000000000        1.4669208750240220E-019   0.0000000000000000     
   0.0000000000000000        1.0031783900707237E-019   0.0000000000000000     
   0.0000000000000000        5.6586021702974969E-021   0.0000000000000000     
   0.0000000000000000       -1.3728562300792252E-019   0.0000000000000000     
   0.0000000000000000        2.3805171012641557E-019   0.0000000000000000     
   0.0000000000000000        2.5203321815913235E-019   0.0000000000000000     
   0.0000000000000000        2.1719603126360722E-019   0.0000000000000000     
   0.0000000000000000        1.3354014943984045E-019   0.0000000000000000     
   0.0000000000000000        1.0655726878317399E-021   0.0000000000000000     
   0.0000000000000000        3.4990072590096464E-019   0.0000000000000000     
   0.0000000000000000        3.6479921801597159E-019   0.0000000000000000     
   0.0000000000000000        3.4966632374588641E-019   0.0000000000000000     
   0.0000000000000000        3.0450204309070909E-019   0.0000000000000000     
   0.0000000000000000        2.2930637605043953E-019   0.0000000000000000     
   0.0000000000000000        0.0000000000000000        0.0000000000000000     
   0.0000000000000000        5.8541517205246594E-021   0.0000000000000000     
   0.0000000000000000        2.3416606882098638E-020   0.0000000000000000     
   0.0000000000000000        5.2687365484721933E-020   0.0000000000000000     
   0.0000000000000000        9.3666427528394551E-020   0.0000000000000000     
   0.0000000000000000        0.0000000000000000        0.0000000000000000     
   0.0000000000000000        7.7565244663542441E-021   0.0000000000000000     
   0.0000000000000000        3.1026097865416976E-020   0.0000000000000000     
   0.0000000000000000        6.9808720197188188E-020   0.0000000000000000     
   0.0000000000000000        1.2410439146166791E-019   0.0000000000000000     
   0.0000000000000000        0.0000000000000000        0.0000000000000000     
   0.0000000000000000        1.1045680333520281E-020   0.0000000000000000     
   0.0000000000000000        4.4182721334081123E-020   0.0000000000000000     
   0.0000000000000000        9.9411123001682533E-020   0.0000000000000000     
   0.0000000000000000        1.7673088533632449E-019   0.0000000000000000     
   0.0000000000000000        0.0000000000000000        0.0000000000000000     
   0.0000000000000000        1.5721619322022774E-020   0.0000000000000000     
   0.0000000000000000        6.2886477288091097E-020   0.0000000000000000     
   0.0000000000000000        1.4149457389820496E-019   0.0000000000000000     
   0.0000000000000000        2.5154590915236439E-019   0.0000000000000000     
   0.0000000000000000        0.0000000000000000        0.0000000000000000     
   0.0000000000000000        2.1784341431861718E-020   0.0000000000000000     
   0.0000000000000000        8.7137365727446872E-020   0.0000000000000000     
   0.0000000000000000        1.9605907288675547E-019   0.0000000000000000     
   0.0000000000000000        3.4854946290978749E-019   0.0000000000000000     
   0.0000000000000000        9.3666427528394551E-020   0.0000000000000000     
   0.0000000000000000        1.3785609895422557E-019   0.0000000000000000     
   0.0000000000000000        1.7675868570332414E-019   0.0000000000000000     
   0.0000000000000000        2.1037418777569022E-019   0.0000000000000000     
   0.0000000000000000        2.3870260517132383E-019   0.0000000000000000     
   0.0000000000000000        1.2410439146166791E-019   0.0000000000000000     
   0.0000000000000000        1.8405079570651826E-019   0.0000000000000000     
   0.0000000000000000        2.3978561697940153E-019   0.0000000000000000     
   0.0000000000000000        2.9130885528031769E-019   0.0000000000000000     
   0.0000000000000000        3.3862051060926670E-019   0.0000000000000000     
   0.0000000000000000        1.7673088533632449E-019   0.0000000000000000     
   0.0000000000000000        2.5950809041163333E-019   0.0000000000000000     
   0.0000000000000000        3.3110882030123539E-019   0.0000000000000000     
   0.0000000000000000        3.9153307500513052E-019   0.0000000000000000     
   0.0000000000000000        4.4078085452331898E-019   0.0000000000000000     
   0.0000000000000000        2.5154590915236439E-019   0.0000000000000000     
   0.0000000000000000        3.6422798306957073E-019   0.0000000000000000     
   0.0000000000000000        4.5072829566882558E-019   0.0000000000000000     
   0.0000000000000000        5.1104684695012887E-019   0.0000000000000000     
   0.0000000000000000        5.4518363691348052E-019   0.0000000000000000     
   0.0000000000000000        3.4854946290978749E-019   0.0000000000000000     
   0.0000000000000000        4.9821047368033060E-019   0.0000000000000000     
   0.0000000000000000        5.9864404308217216E-019   0.0000000000000000     
   0.0000000000000000        6.4985017111531245E-019   0.0000000000000000     
   0.0000000000000000        6.5182885777975137E-019   0.0000000000000000     
   0.0000000000000000        2.3870260517132383E-019   0.0000000000000000     
   0.0000000000000000        2.6491614400987689E-019   0.0000000000000000     