 <VTKFile type="UnstructuredGrid"  version="0.1"   >
 <UnstructuredGrid>
 <Piece  NumberOfPoints="          1600 "  NumberOfCells="         1024 ">
 <Points>
 <DataArray  type="Float64" NumberOfComponents="3"  format="ascii" >
   0.0000000000000000        0.0000000000000000        0.0000000000000000     
   3.1250000000000000E-002   0.0000000000000000        0.0000000000000000     
   6.2500000000000000E-002   0.0000000000000000        0.0000000000000000     
   9.3750000000000000E-002   0.0000000000000000        0.0000000000000000     
  0.12500000000000000        0.0000000000000000        0.0000000000000000     
   0.0000000000000000        3.1250000000000000E-002   0.0000000000000000     
   3.1250000000000000E-002   3.1250000000000000E-002   0.0000000000000000     
   6.2500000000000000E-002   3.1250000000000000E-002   0.0000000000000000     
   9.3750000000000000E-002   3.1250000000000000E-002   0.0000000000000000     
  0.12500000000000000        3.1250000000000000E-002   0.0000000000000000     
   0.0000000000000000        6.2500000000000000E-002   0.0000000000000000     
   3.1250000000000000E-002   6.2500000000000000E-002   0.0000000000000000     
   6.2500000000000000E-002   6.2500000000000000E-002   0.0000000000000000     
   9.3750000000000000E-002   6.2500000000000000E-002   0.0000000000000000     
  0.12500000000000000        6.2500000000000000E-002   0.0000000000000000     
   0.0000000000000000        9.3750000000000000E-002   0.0000000000000000     
   3.1250000000000000E-002   9.3750000000000000E-002   0.0000000000000000     
   6.2500000000000000E-002   9.3750000000000000E-002   0.0000000000000000     
   9.3750000000000000E-002   9.3750000000000000E-002   0.0000000000000000     
  0.12500000000000000        9.3750000000000000E-002   0.0000000000000000     
   0.0000000000000000       0.12500000000000000        0.0000000000000000     
   3.1250000000000000E-002  0.12500000000000000        0.0000000000000000     
   6.2500000000000000E-002  0.12500000000000000        0.0000000000000000     
   9.3750000000000000E-002  0.12500000000000000        0.0000000000000000     
  0.12500000000000000       0.12500000000000000        0.0000000000000000     
  0.12500000000000000        0.0000000000000000        0.0000000000000000     
  0.15625000000000000        0.0000000000000000        0.0000000000000000     
  0.18750000000000000        0.0000000000000000        0.0000000000000000     
  0.21875000000000000        0.0000000000000000        0.0000000000000000     
  0.25000000000000000        0.0000000000000000        0.0000000000000000     
  0.12500000000000000        3.1250000000000000E-002   0.0000000000000000     
  0.15625000000000000        3.1250000000000000E-002   0.0000000000000000     
  0.18750000000000000        3.1250000000000000E-002   0.0000000000000000     
  0.21875000000000000        3.1250000000000000E-002   0.0000000000000000     
  0.25000000000000000        3.1250000000000000E-002   0.0000000000000000     
  0.12500000000000000        6.2500000000000000E-002   0.0000000000000000     
  0.15625000000000000        6.2500000000000000E-002   0.0000000000000000     
  0.18750000000000000        6.2500000000000000E-002   0.0000000000000000     
  0.21875000000000000        6.2500000000000000E-002   0.0000000000000000     
  0.25000000000000000        6.2500000000000000E-002   0.0000000000000000     
  0.12500000000000000        9.3750000000000000E-002   0.0000000000000000     
  0.15625000000000000        9.3750000000000000E-002   0.0000000000000000     
  0.18750000000000000        9.3750000000000000E-002   0.0000000000000000     
  0.21875000000000000        9.3750000000000000E-002   0.0000000000000000     
  0.25000000000000000        9.3750000000000000E-002   0.0000000000000000     
  0.12500000000000000       0.12500000000000000        0.0000000000000000     
  0.15625000000000000       0.12500000000000000        0.0000000000000000     
  0.18750000000000000       0.12500000000000000        0.0000000000000000     
  0.21875000000000000       0.12500000000000000        0.0000000000000000     
  0.25000000000000000       0.12500000000000000        0.0000000000000000     
  0.25000000000000000        0.0000000000000000        0.0000000000000000     
  0.28125000000000000        0.0000000000000000        0.0000000000000000     
  0.31250000000000000        0.0000000000000000        0.0000000000000000     
  0.34375000000000000        0.0000000000000000        0.0000000000000000     
  0.37500000000000000        0.0000000000000000        0.0000000000000000     
  0.25000000000000000        3.1250000000000000E-002   0.0000000000000000     
  0.28125000000000000        3.1250000000000000E-002   0.0000000000000000     
  0.31250000000000000        3.1250000000000000E-002   0.0000000000000000     
  0.34375000000000000        3.1250000000000000E-002   0.0000000000000000     
  0.37500000000000000        3.1250000000000000E-002   0.0000000000000000     
  0.25000000000000000        6.2500000000000000E-002   0.0000000000000000     
  0.28125000000000000        6.2500000000000000E-002   0.0000000000000000     
  0.31250000000000000        6.2500000000000000E-002   0.0000000000000000     
  0.34375000000000000        6.2500000000000000E-002   0.0000000000000000     
  0.37500000000000000        6.2500000000000000E-002   0.0000000000000000     
  0.25000000000000000        9.3750000000000000E-002   0.0000000000000000     
  0.28125000000000000        9.3750000000000000E-002   0.0000000000000000     
  0.31250000000000000        9.3750000000000000E-002   0.0000000000000000     
  0.34375000000000000        9.3750000000000000E-002   0.0000000000000000     
  0.37500000000000000        9.3750000000000000E-002   0.0000000000000000     
  0.25000000000000000       0.12500000000000000        0.0000000000000000     
  0.28125000000000000       0.12500000000000000        0.0000000000000000     
  0.31250000000000000       0.12500000000000000        0.0000000000000000     
  0.34375000000000000       0.12500000000000000        0.0000000000000000     
  0.37500000000000000       0.12500000000000000        0.0000000000000000     
  0.37500000000000000        0.0000000000000000        0.0000000000000000     
  0.40625000000000000        0.0000000000000000        0.0000000000000000     
  0.43750000000000000        0.0000000000000000        0.0000000000000000     
  0.46875000000000000        0.0000000000000000        0.0000000000000000     
  0.50000000000000000        0.0000000000000000        0.0000000000000000     
  0.37500000000000000        3.1250000000000000E-002   0.0000000000000000     
  0.40625000000000000        3.1250000000000000E-002   0.0000000000000000     
  0.43750000000000000        3.1250000000000000E-002   0.0000000000000000     
  0.46875000000000000        3.1250000000000000E-002   0.0000000000000000     
  0.50000000000000000        3.1250000000000000E-002   0.0000000000000000     
  0.37500000000000000        6.2500000000000000E-002   0.0000000000000000     
  0.40625000000000000        6.2500000000000000E-002   0.0000000000000000     
  0.43750000000000000        6.2500000000000000E-002   0.0000000000000000     
  0.46875000000000000        6.2500000000000000E-002   0.0000000000000000     
  0.50000000000000000        6.2500000000000000E-002   0.0000000000000000     
  0.37500000000000000        9.3750000000000000E-002   0.0000000000000000     
  0.40625000000000000        9.3750000000000000E-002   0.0000000000000000     
  0.43750000000000000        9.3750000000000000E-002   0.0000000000000000     
  0.46875000000000000        9.3750000000000000E-002   0.0000000000000000     
  0.50000000000000000        9.3750000000000000E-002   0.0000000000000000     
  0.37500000000000000       0.12500000000000000        0.0000000000000000     
  0.40625000000000000       0.12500000000000000        0.0000000000000000     
  0.43750000000000000       0.12500000000000000        0.0000000000000000     
  0.46875000000000000       0.12500000000000000        0.0000000000000000     
  0.50000000000000000       0.12500000000000000        0.0000000000000000     
  0.50000000000000000        0.0000000000000000        0.0000000000000000     
  0.53125000000000000        0.0000000000000000        0.0000000000000000     
  0.56250000000000000        0.0000000000000000        0.0000000000000000     
  0.59375000000000000        0.0000000000000000        0.0000000000000000     
  0.62500000000000000        0.0000000000000000        0.0000000000000000     
  0.50000000000000000        3.1250000000000000E-002   0.0000000000000000     
  0.53125000000000000        3.1250000000000000E-002   0.0000000000000000     
  0.56250000000000000        3.1250000000000000E-002   0.0000000000000000     
  0.59375000000000000        3.1250000000000000E-002   0.0000000000000000     
  0.62500000000000000        3.1250000000000000E-002   0.0000000000000000     
  0.50000000000000000        6.2500000000000000E-002   0.0000000000000000     
  0.53125000000000000        6.2500000000000000E-002   0.0000000000000000     
  0.56250000000000000        6.2500000000000000E-002   0.0000000000000000     
  0.59375000000000000        6.2500000000000000E-002   0.0000000000000000     
  0.62500000000000000        6.2500000000000000E-002   0.0000000000000000     
  0.50000000000000000        9.3750000000000000E-002   0.0000000000000000     
  0.53125000000000000        9.3750000000000000E-002   0.0000000000000000     
  0.56250000000000000        9.3750000000000000E-002   0.0000000000000000     
  0.59375000000000000        9.3750000000000000E-002   0.0000000000000000     
  0.62500000000000000        9.3750000000000000E-002   0.0000000000000000     
  0.50000000000000000       0.12500000000000000        0.0000000000000000     
  0.53125000000000000       0.12500000000000000        0.0000000000000000     
  0.56250000000000000       0.12500000000000000        0.0000000000000000     
[...]
 <PointData>
 <DataArray  type="Float64" Name="disp" NumberOfComponents="3" format="ascii">
   0.0000000000000000        0.0000000000000000        0.0000000000000000     
   6.1020498921751966E-003   3.7468067113886902E-003   0.0000000000000000     
   1.1697170903167908E-002   7.2393091865474418E-003   0.0000000000000000     
   1.6785363032978132E-002   1.0477507425476252E-002   0.0000000000000000     
   2.1366626281605870E-002   1.3461401428175125E-002   0.0000000000000000     
   0.0000000000000000        0.0000000000000000        0.0000000000000000     
   4.9109048619499739E-003   2.9734131566900622E-003   0.0000000000000000     
   9.6255916493181021E-003   5.9646076609733336E-003   0.0000000000000000     
   1.4144060362104386E-002   8.9735835128498150E-003   0.0000000000000000     
   1.8466311000308825E-002   1.2000340712319507E-002   0.0000000000000000     
   0.0000000000000000        0.0000000000000000        0.0000000000000000     
   3.9793233899376029E-003   2.3728549884264863E-003   0.0000000000000000     
   7.9689320603867006E-003   4.9595618653683815E-003   0.0000000000000000     
   1.1968826011347291E-002   7.7601206308256874E-003   0.0000000000000000     
   1.5979005242819377E-002   1.0774531284798401E-002   0.0000000000000000     
   0.0000000000000000        0.0000000000000000        0.0000000000000000     
   3.3073054761380838E-003   1.9451322065979642E-003   0.0000000000000000     
   6.7271921363736987E-003   4.2241717997325871E-003   0.0000000000000000     
   1.0259659980706841E-002   6.8371187794038666E-003   0.0000000000000000     
   1.3904709009137515E-002   9.7839731456118070E-003   0.0000000000000000     
   0.0000000000000000        0.0000000000000000        0.0000000000000000     
   2.8948511205514164E-003   1.6902448112044947E-003   0.0000000000000000     
   5.9003718772790963E-003   3.7584374640659470E-003   0.0000000000000000     
   9.0165622701830431E-003   6.2045779585843570E-003   0.0000000000000000     
   1.2243422299263250E-002   9.0286662947597247E-003   0.0000000000000000     
   2.1366626281605870E-002   1.3461401428175125E-002   0.0000000000000000     
   2.5654246052683894E-002   1.6419238459274319E-002   0.0000000000000000     
   2.9861507749844984E-002   1.9579265783404090E-002   0.0000000000000000     
   3.3988411373089139E-002   2.2941483400564445E-002   0.0000000000000000     
   3.8034956922416346E-002   2.6505891310755383E-002   0.0000000000000000     
   1.8466311000308825E-002   1.2000340712319507E-002   0.0000000000000000     
   2.2633383095575409E-002   1.5112762897072664E-002   0.0000000000000000     
   2.6686316179548138E-002   1.8378733704799550E-002   0.0000000000000000     
   3.0625110252227000E-002   2.1798253135500163E-002   0.0000000000000000     
   3.4449765313612005E-002   2.5371321189174498E-002   0.0000000000000000     
   1.5979005242819377E-002   1.0774531284798401E-002   0.0000000000000000     
   1.9931462510129862E-002   1.3962325108233396E-002   0.0000000000000000     
   2.3758190568605661E-002   1.7283033382077539E-002   0.0000000000000000     
   2.7459189418246779E-002   2.0736656106330843E-002   0.0000000000000000     
   3.1034459059053207E-002   2.4323193280993298E-002   0.0000000000000000     
   1.3904709009137515E-002   9.7839731456118070E-003   0.0000000000000000     
   1.7548484296347245E-002   1.2967925092756506E-002   0.0000000000000000     
   2.1077130917017562E-002   1.6292164815238066E-002   0.0000000000000000     
   2.4490648871148463E-002   1.9756692313056493E-002   0.0000000000000000     
   2.7789038158739947E-002   2.3361507586211784E-002   0.0000000000000000     
   1.2243422299263250E-002   9.0286662947597247E-003   0.0000000000000000     
   1.5484448454227568E-002   1.2129562850642000E-002   0.0000000000000000     
   1.8643137224783835E-002   1.5406128004281129E-002   0.0000000000000000     
   2.1719488610932057E-002   1.8858361755677119E-002   0.0000000000000000     
   2.4713502612672224E-002   2.2486264104829956E-002   0.0000000000000000     
   3.8034956922416346E-002   2.6505891310755383E-002   0.0000000000000000     
   4.2039750088905307E-002   3.0299177718156954E-002   0.0000000000000000     
   4.6041396563634707E-002   3.4348030826949205E-002   0.0000000000000000     
   5.0039896346604537E-002   3.8652450637132137E-002   0.0000000000000000     
   5.4035249437814806E-002   4.3212437148705748E-002   0.0000000000000000     
   3.4449765313612005E-002   2.5371321189174498E-002   0.0000000000000000     
   3.8201904711880022E-002   2.9149350485014824E-002   0.0000000000000000     
   4.1923151795207905E-002   3.3183753642213390E-002   0.0000000000000000     
   4.5613506563595661E-002   3.7474530660770208E-002   0.0000000000000000     
   4.9272969017043311E-002   4.2021681540685286E-002   0.0000000000000000     
   3.1034459059053207E-002   2.4323193280993298E-002   0.0000000000000000     
   3.4519878312948997E-002   2.8103271602084371E-002   0.0000000000000000     
   3.7951326001858209E-002   3.2137517765623534E-002   0.0000000000000000     
   4.1328802125780835E-002   3.6425931771610770E-002   0.0000000000000000     
   4.4652306684716869E-002   4.0968513620046103E-002   0.0000000000000000     
   2.7789038158739947E-002   2.3361507586211784E-002   0.0000000000000000     
   3.0993670892112250E-002   2.7160941069365604E-002   0.0000000000000000     
   3.4125919183585610E-002   3.1209323197179610E-002   0.0000000000000000     
   3.7185783033160023E-002   3.5506653969653815E-002   0.0000000000000000     
   4.0173262440835487E-002   4.0052933386788198E-002   0.0000000000000000     
   2.4713502612672224E-002   2.2486264104829956E-002   0.0000000000000000     
   2.7623282449369770E-002   2.6322358886858507E-002   0.0000000000000000     
   3.0446931340390105E-002   3.0399169936881635E-002   0.0000000000000000     
   3.3184449285733240E-002   3.4716697254899329E-002   0.0000000000000000     
   3.5835836285399172E-002   3.9274940840911592E-002   0.0000000000000000     
   5.4035249437814806E-002   4.3212437148705748E-002   0.0000000000000000     
   5.7991177811666461E-002   4.8071048907180898E-002   0.0000000000000000     
   6.1871403442560459E-002   5.3271344458068443E-002   0.0000000000000000     
   6.5675926330496820E-002   5.8813323801368361E-002   0.0000000000000000     
   6.9404746475475509E-002   6.4696986937080675E-002   0.0000000000000000     
   4.9272969017043311E-002   4.2021681540685286E-002   0.0000000000000000     
   5.2902421434773618E-002   4.6881340830613683E-002   0.0000000000000000     
   5.6502746096009408E-002   5.2109643079210496E-002   0.0000000000000000     
   6.0073943000750696E-002   5.7706588286475735E-002   0.0000000000000000     
   6.3616012148997439E-002   6.3672176452409385E-002   0.0000000000000000     
   4.4652306684716869E-002   4.0968513620046103E-002   0.0000000000000000     
   4.7945072638664502E-002   4.5826813772264642E-002   0.0000000000000000     
   5.1230332947621915E-002   5.1062382689601546E-002   0.0000000000000000     
   5.4508087611589116E-002   5.6675220372056787E-002   0.0000000000000000     
   5.7778336630566085E-002   6.2665326819630385E-002   0.0000000000000000     
   4.0173262440835487E-002   4.0052933386788198E-002   0.0000000000000000     
   4.3119131423339112E-002   4.4907467732133784E-002   0.0000000000000000     
   4.6054163997397965E-002   5.0129563289241563E-002   0.0000000000000000     
   4.8978360163012089E-002   5.5719220058111522E-002   0.0000000000000000     
   5.1891719920181441E-002   6.1676438038743675E-002   0.0000000000000000     
   3.5835836285399172E-002   3.9274940840911592E-002   0.0000000000000000     
   3.8424597788797435E-002   4.4123302710221107E-002   0.0000000000000000     
   4.0974239245337579E-002   4.9311184878130562E-002   0.0000000000000000     
   4.3484760655019598E-002   5.4838587344639957E-002   0.0000000000000000     
   4.5956162017843499E-002   6.0705510109749283E-002   0.0000000000000000     
   6.9404746475475509E-002   6.4696986937080675E-002   0.0000000000000000     
   7.3046512010272471E-002   7.0871840368397970E-002   0.0000000000000000     
   7.6589871067663573E-002   7.7287390598512848E-002   0.0000000000000000     
   8.0034823647648842E-002   8.3943637627425294E-002   0.0000000000000000     
   8.3381369750228265E-002   9.0840581455135308E-002   0.0000000000000000     
   6.3616012148997439E-002   6.3672176452409385E-002   0.0000000000000000     
   6.7107941786756137E-002   6.9940644479150535E-002   0.0000000000000000     
   7.0528720160033267E-002   7.6446229268838289E-002   0.0000000000000000     
   7.3878347268828803E-002   8.3188930821472620E-002   0.0000000000000000     
   7.7156823113142745E-002   9.0168749137053555E-002   0.0000000000000000     
   5.7778336630566085E-002   6.2665326819630385E-002   0.0000000000000000     
   6.1020533644931957E-002   6.8962643343002145E-002   0.0000000000000000     
   6.4214132295065798E-002   7.5497111252851884E-002   0.0000000000000000     
   6.7359132580967651E-002   8.2268730549179589E-002   0.0000000000000000     
   7.0455534502637515E-002   8.9277501231985287E-002   0.0000000000000000     
   5.1891719920181441E-002   6.1676438038743675E-002   0.0000000000000000     
   5.4784287584799862E-002   6.7937836959952799E-002   0.0000000000000000     
   5.7646107472761193E-002   7.4440036550553645E-002   0.0000000000000000     
   6.0477179584065427E-002   8.1183036810546172E-002   0.0000000000000000     
   6.3277503918712577E-002   8.8166837739930462E-002   0.0000000000000000     
   4.5956162017843499E-002   6.0705510109749283E-002   0.0000000000000000     
   4.8399203606359902E-002   6.6866225330002499E-002   0.0000000000000000     
   5.0824645693119438E-002   7.3275005161943546E-002   0.0000000000000000     
   5.3232488278122117E-002   7.9931849605572425E-002   0.0000000000000000     
   5.5622731361367916E-002   8.6836758660889135E-002   0.0000000000000000     
   8.3381369750228265E-002   9.0840581455135308E-002   0.0000000000000000     
   8.6639958175910803E-002   9.7976762405051057E-002   0.0000000000000000     
   8.9821037725205416E-002  0.10535072080058069        0.0000000000000000     
   9.2924608398112118E-002  0.11296245664172420        0.0000000000000000     
   9.5950670194630910E-002  0.12081196992848162        0.0000000000000000     
   7.7156823113142745E-002   9.0168749137053555E-002   0.0000000000000000     
   8.0356608381381214E-002   9.7388192611476534E-002   0.0000000000000000     
   8.3470163761950322E-002  0.10484976964063704        0.0000000000000000     
   8.6497489254850068E-002  0.11255348022453507        0.0000000000000000     
   8.9438584860080467E-002  0.12049932436317060        0.0000000000000000     
   7.0455534502637515E-002   8.9277501231985287E-002   0.0000000000000000     
   7.3483052998543283E-002   9.6525522978098036E-002   0.0000000000000000     
   7.6421403007152916E-002  0.10401489546434697        0.0000000000000000     
   7.9270584528466387E-002  0.11174561869073209        0.0000000000000000     
   8.2030597562483709E-002  0.11971769265725338        0.0000000000000000     
   6.3277503918712577E-002   8.8166837739930462E-002   0.0000000000000000     
   6.6019292027397022E-002   9.5388753504915519E-002   0.0000000000000000     
   6.8674755460813169E-002  0.10284609827171047        0.0000000000000000     
   7.1243894218961060E-002  0.11053887204031526        0.0000000000000000     
   7.3726708301840665E-002  0.11846707481072992        0.0000000000000000     
   5.5622731361367916E-002   8.6836758660889135E-002   0.0000000000000000     
   5.7965325467942405E-002   9.3977884191929054E-002   0.0000000000000000     
   6.0230221122931138E-002  0.10134337806272754        0.0000000000000000     
   6.2417418326334101E-002  0.10893324027328460        0.0000000000000000     
   6.4526917078151308E-002  0.11674747082360025        0.0000000000000000     
   9.5950670194630910E-002  0.12081196992848162        0.0000000000000000     
   9.8840249062372085E-002  0.12884571653036109        0.0000000000000000     
  0.10153437094894596       0.13701015231687078        0.0000000000000000     
  0.10403303585435258       0.14530527728801071        0.0000000000000000     
  0.10633624377859188       0.15373109144378089        0.0000000000000000     
   8.9438584860080467E-002  0.12049932436317060        0.0000000000000000     
   9.2252999803559194E-002  0.12864646618604611        0.0000000000000000     
   9.4900283311204009E-002  0.13695406982266403        0.0000000000000000     
   9.7380435383014913E-002  0.14542213527302433        0.0000000000000000     
   9.9693456018991863E-002  0.15405066253712707        0.0000000000000000     
   8.2030597562483709E-002  0.11971769265725338        0.0000000000000000     
   8.4675535288970205E-002  0.12789891784171192        0.0000000000000000     
   8.7179490887691197E-002  0.13625709472190875        0.0000000000000000     
   8.9542464358646642E-002  0.14479222329784386        0.0000000000000000     
   9.1764455701836598E-002  0.15350430356951733        0.0000000000000000     
   7.3726708301840665E-002  0.11846707481072992        0.0000000000000000     
   7.6107855518605091E-002  0.12660307149735847        0.0000000000000000     
   7.8371993678407484E-002  0.13491922701460496        0.0000000000000000     
   8.0519122781247815E-002  0.14341554136246937        0.0000000000000000     
   8.2549242827126099E-002  0.15209201454095178        0.0000000000000000     
   6.4526917078151308E-002  0.11674747082360025        0.0000000000000000     
   6.6549960492463880E-002  0.12475892715298584        0.0000000000000000     
   6.8477791683352898E-002  0.13294046670075269        0.0000000000000000     
   7.0310410650818403E-002  0.14129208946690086        0.0000000000000000     
   7.2047817394860367E-002  0.14981379545143028        0.0000000000000000     
  0.10633624377859188       0.15373109144378089        0.0000000000000000     
  0.10847251087863712       0.16229500450044521        0.0000000000000000     
  0.11047035331146143       0.17100442617426759        0.0000000000000000     
  0.11232977107706486       0.17985935646524809        0.0000000000000000     
  0.11405076417544741       0.18885979537338660        0.0000000000000000     
   9.9693456018991863E-002  0.15405066253712707        0.0000000000000000     
  0.10185429572857413       0.16279789581154180        0.0000000000000000     
  0.10387790502120089       0.17162207929283810        0.0000000000000000     
  0.10576428389687220       0.18052321298101601        0.0000000000000000     
  0.10751343235558801       0.18950129687607553        0.0000000000000000     
   9.1764455701836598E-002  0.15350430356951733        0.0000000000000000     
   9.3850902596864072E-002  0.16233081775484146        0.0000000000000000     
   9.5807242723332034E-002  0.17120924807172860        0.0000000000000000     
   9.7633476081240581E-002  0.18013959452017869        0.0000000000000000     
   9.9329602670589615E-002  0.18912185710019180        0.0000000000000000     
   8.2549242827126099E-002  0.15209201454095178        0.0000000000000000     
   8.4462331483506931E-002  0.16089377033034422        0.0000000000000000     
   8.6258366417854893E-002  0.16976593251093902        0.0000000000000000     
   8.7937347630169985E-002  0.17870850108273609        0.0000000000000000     
   8.9499275120452193E-002  0.18772147604573550        0.0000000000000000     
   7.2047817394860367E-002  0.14981379545143028        0.0000000000000000     
   7.3688582388502732E-002  0.15848675353805011        0.0000000000000000     
   7.5231276104769429E-002  0.16729213261046941        0.0000000000000000     
   7.6675898543660428E-002  0.17622993266868822        0.0000000000000000     
   7.8022449705175773E-002  0.18530015371270653        0.0000000000000000     
   0.0000000000000000        0.0000000000000000        0.0000000000000000     
   2.8948511205514164E-003   1.6902448112044947E-003   0.0000000000000000     
   5.9003718772790963E-003   3.7584374640659470E-003   0.0000000000000000     
   9.0165622701830431E-003   6.2045779585843570E-003   0.0000000000000000     
   1.2243422299263250E-002   9.0286662947597247E-003   0.0000000000000000     
   0.0000000000000000        0.0000000000000000        0.0000000000000000     
   2.6126440752990109E-003   1.5369136294137915E-003   0.0000000000000000     
   5.2893373512698846E-003   3.4571138170192053E-003   0.0000000000000000     
   8.0300798279126194E-003   5.7606005628162418E-003   0.0000000000000000     
   1.0834871505227219E-002   8.4473738668048998E-003   0.0000000000000000     
   0.0000000000000000        0.0000000000000000        0.0000000000000000     
   2.3313680925022774E-003   1.4138594883935679E-003   0.0000000000000000     
   4.6949546265130449E-003   3.2149558172431029E-003   0.0000000000000000     
   7.0907596020323054E-003   5.4032889865486058E-003   0.0000000000000000     
   9.5187830190600568E-003   7.9788589963100745E-003   0.0000000000000000     
   0.0000000000000000        0.0000000000000000        0.0000000000000000     
   2.0510231721612153E-003   1.3210823881438245E-003   0.0000000000000000     
   4.1172237030085816E-003   3.0319634647376407E-003   0.0000000000000000     
   6.1986015925420976E-003   5.1326432297814492E-003   0.0000000000000000     
   8.2951568407617672E-003   7.6231216832752489E-003   0.0000000000000000     
   0.0000000000000000        0.0000000000000000        0.0000000000000000     
   1.7716093142758258E-003   1.2585823286645605E-003   0.0000000000000000     
   3.5561445807564922E-003   2.9081367595028178E-003   0.0000000000000000     
   5.3536057994419978E-003   4.9486632925147718E-003   0.0000000000000000     
   7.1639929703323450E-003   7.3801619277004231E-003   0.0000000000000000     
   1.2243422299263250E-002   9.0286662947597247E-003   0.0000000000000000     
   1.5484448454227568E-002   1.2129562850642000E-002   0.0000000000000000     
   1.8643137224783835E-002   1.5406128004281129E-002   0.0000000000000000     
   2.1719488610932057E-002   1.8858361755677119E-002   0.0000000000000000     
   2.4713502612672224E-002   2.2486264104829956E-002   0.0000000000000000     
   1.0834871505227219E-002   8.4473738668048998E-003   0.0000000000000000     
   1.3649229490400407E-002   1.1435640489623800E-002   0.0000000000000000     
   1.6418670890618908E-002   1.4643607191911566E-002   0.0000000000000000     
   1.9143195705882719E-002   1.8071273973668197E-002   0.0000000000000000     
   2.1822803936191851E-002   2.1718640834893693E-002   0.0000000000000000     
   9.5187830190600568E-003   7.9788589963100745E-003   0.0000000000000000     
   1.1952701911495341E-002   1.0874560117435837E-002   0.0000000000000000     
   1.4366193313237198E-002   1.4023286620834225E-002   0.0000000000000000     
   1.6759257224285628E-002   1.7425038506505241E-002   0.0000000000000000     
   1.9131893644640630E-002   2.1079815774448871E-002   0.0000000000000000     
   8.2951568407617672E-003   7.6231216832752489E-003   0.0000000000000000     
   1.0394865717512372E-002   1.0446321734078111E-002   0.0000000000000000     
   1.2485704492638708E-002   1.3545166291049106E-002   0.0000000000000000     
   1.4567673166140771E-002   1.6919655354188236E-002   0.0000000000000000     
   1.6640771738018562E-002   2.0569788923495501E-002   0.0000000000000000     
   7.1639929703323450E-003   7.3801619277004231E-003   0.0000000000000000     
   8.9757209084515028E-003   1.0150925339550620E-002   0.0000000000000000     
   1.0777204428823439E-002   1.3209246202556207E-002   0.0000000000000000     
   1.2568443531448157E-002   1.6555124516717191E-002   0.0000000000000000     
   1.4349438216325656E-002   2.0188560282033568E-002   0.0000000000000000     
   2.4713502612672224E-002   2.2486264104829956E-002   0.0000000000000000     
   2.7623282449369770E-002   2.6322358886858507E-002   0.0000000000000000     