 <VTKFile type="UnstructuredGrid"  version="0.1"   >
 <UnstructuredGrid>
 <Piece  NumberOfPoints="          1600 "  NumberOfCells="         1024 ">
 <Points>
 <DataArray  type="Float64" NumberOfComponents="3"  format="ascii" >
   0.0000000000000000        0.0000000000000000        0.0000000000000000     
   3.1250000000000000E-002   0.0000000000000000        0.0000000000000000     
   6.2500000000000000E-002   0.0000000000000000        0.0000000000000000     
   9.3750000000000000E-002   0.0000000000000000        0.0000000000000000     
  0.12500000000000000        0.0000000000000000        0.0000000000000000     
   0.0000000000000000        3.1250000000000000E-002   0.0000000000000000     
   3.1250000000000000E-002   3.1250000000000000E-002   0.0000000000000000     
   6.2500000000000000E-002   3.1250000000000000E-002   0.0000000000000000     
   9.3750000000000000E-002   3.1250000000000000E-002   0.0000000000000000     
  0.12500000000000000        3.1250000000000000E-002   0.0000000000000000     
   0.0000000000000000        6.2500000000000000E-002   0.0000000000000000     
   3.1250000000000000E-002   6.2500000000000000E-002   0.0000000000000000     
   6.2500000000000000E-002   6.2500000000000000E-002   0.0000000000000000     
   9.3750000000000000E-002   6.2500000000000000E-002   0.0000000000000000     
  0.12500000000000000        6.2500000000000000E-002   0.0000000000000000     
   0.0000000000000000        9.3750000000000000E-002   0.0000000000000000     
   3.1250000000000000E-002   9.3750000000000000E-002   0.0000000000000000     
   6.2500000000000000E-002   9.3750000000000000E-002   0.0000000000000000     
   9.3750000000000000E-002   9.3750000000000000E-002   0.0000000000000000     
  0.12500000000000000        9.3750000000000000E-002   0.0000000000000000     
   0.0000000000000000       0.12500000000000000        0.0000000000000000     
   3.1250000000000000E-002  0.12500000000000000        0.0000000000000000     
   6.2500000000000000E-002  0.12500000000000000        0.0000000000000000     
   9.3750000000000000E-002  0.12500000000000000        0.0000000000000000     
  0.12500000000000000       0.12500000000000000        0.0000000000000000     
  0.12500000000000000        0.0000000000000000        0.0000000000000000     
  0.15625000000000000        0.0000000000000000        0.0000000000000000     
  0.18750000000000000        0.0000000000000000        0.0000000000000000     
  0.21875000000000000        0.0000000000000000        0.0000000000000000     
  0.25000000000000000        0.0000000000000000        0.0000000000000000     
  0.12500000000000000        3.1250000000000000E-002   0.0000000000000000     
  0.15625000000000000        3.1250000000000000E-002   0.0000000000000000     
  0.18750000000000000        3.1250000000000000E-002   0.0000000000000000     
  0.21875000000000000        3.1250000000000000E-002   0.0000000000000000     
  0.25000000000000000        3.1250000000000000E-002   0.0000000000000000     
  0.12500000000000000        6.2500000000000000E-002   0.0000000000000000     
  0.15625000000000000        6.2500000000000000E-002   0.0000000000000000     
  0.18750000000000000        6.2500000000000000E-002   0.0000000000000000     
  0.21875000000000000        6.2500000000000000E-002   0.0000000000000000     
  0.25000000000000000        6.2500000000000000E-002   0.0000000000000000     
  0.12500000000000000        9.3750000000000000E-002   0.0000000000000000     
  0.15625000000000000        9.3750000000000000E-002   0.0000000000000000     
  0.18750000000000000        9.3750000000000000E-002   0.0000000000000000     
  0.21875000000000000        9.3750000000000000E-002   0.0000000000000000     
  0.25000000000000000        9.3750000000000000E-002   0.0000000000000000     
  0.12500000000000000       0.12500000000000000        0.0000000000000000     
  0.15625000000000000       0.12500000000000000        0.0000000000000000     
  0.18750000000000000       0.12500000000000000        0.0000000000000000     
  0.21875000000000000       0.12500000000000000        0.0000000000000000     
  0.25000000000000000       0.12500000000000000        0.0000000000000000     
  0.25000000000000000        0.0000000000000000        0.0000000000000000     
  0.28125000000000000        0.0000000000000000        0.0000000000000000     
  0.31250000000000000        0.0000000000000000        0.0000000000000000     
  0.34375000000000000        0.0000000000000000        0.0000000000000000     
  0.37500000000000000        0.0000000000000000        0.0000000000000000     
  0.25000000000000000        3.1250000000000000E-002   0.0000000000000000     
  0.28125000000000000        3.1250000000000000E-002   0.0000000000000000     
  0.31250000000000000        3.1250000000000000E-002   0.0000000000000000     
  0.34375000000000000        3.1250000000000000E-002   0.0000000000000000     
  0.37500000000000000        3.1250000000000000E-002   0.0000000000000000     
  0.25000000000000000        6.2500000000000000E-002   0.0000000000000000     
  0.28125000000000000        6.2500000000000000E-002   0.0000000000000000     
  0.31250000000000000        6.2500000000000000E-002   0.0000000000000000     
  0.34375000000000000        6.2500000000000000E-002   0.0000000000000000     
  0.37500000000000000        6.2500000000000000E-002   0.0000000000000000     
  0.25000000000000000        9.3750000000000000E-002   0.0000000000000000     
  0.28125000000000000        9.3750000000000000E-002   0.0000000000000000     
  0.31250000000000000        9.3750000000000000E-002   0.0000000000000000     
  0.34375000000000000        9.3750000000000000E-002   0.0000000000000000     
  0.37500000000000000        9.3750000000000000E-002   0.0000000000000000     
  0.25000000000000000       0.12500000000000000        0.0000000000000000     
  0.28125000000000000       0.12500000000000000        0.0000000000000000     
  0.31250000000000000       0.12500000000000000        0.0000000000000000     
  0.34375000000000000       0.12500000000000000        0.0000000000000000     
  0.37500000000000000       0.12500000000000000        0.0000000000000000     
  0.37500000000000000        0.0000000000000000        0.0000000000000000     
  0.40625000000000000        0.0000000000000000        0.0000000000000000     
  0.43750000000000000        0.0000000000000000        0.0000000000000000     
  0.46875000000000000        0.0000000000000000        0.0000000000000000     
  0.50000000000000000        0.0000000000000000        0.0000000000000000     
  0.37500000000000000        3.1250000000000000E-002   0.0000000000000000     
  0.40625000000000000        3.1250000000000000E-002   0.0000000000000000     
  0.43750000000000000        3.1250000000000000E-002   0.0000000000000000     
  0.46875000000000000        3.1250000000000000E-002   0.0000000000000000     
  0.50000000000000000        3.1250000000000000E-002   0.0000000000000000     
  0.37500000000000000        6.2500000000000000E-002   0.0000000000000000     
  0.40625000000000000        6.2500000000000000E-002   0.0000000000000000     
  0.43750000000000000        6.2500000000000000E-002   0.0000000000000000     
  0.46875000000000000        6.2500000000000000E-002   0.0000000000000000     
  0.50000000000000000        6.2500000000000000E-002   0.0000000000000000     
  0.37500000000000000        9.3750000000000000E-002   0.0000000000000000     
  0.40625000000000000        9.3750000000000000E-002   0.0000000000000000     
  0.43750000000000000        9.3750000000000000E-002   0.0000000000000000     
  0.46875000000000000        9.3750000000000000E-002   0.0000000000000000     
  0.50000000000000000        9.3750000000000000E-002   0.0000000000000000     
  0.37500000000000000       0.12500000000000000        0.0000000000000000     
  0.40625000000000000       0.12500000000000000        0.0000000000000000     
  0.43750000000000000       0.12500000000000000        0.0000000000000000     
  0.46875000000000000       0.12500000000000000        0.0000000000000000     
  0.50000000000000000       0.12500000000000000        0.0000000000000000     
  0.50000000000000000        0.0000000000000000        0.0000000000000000     
  0.53125000000000000        0.0000000000000000        0.0000000000000000     
  0.56250000000000000        0.0000000000000000        0.0000000000000000     
  0.59375000000000000        0.0000000000000000        0.0000000000000000     
  0.62500000000000000        0.0000000000000000        0.0000000000000000     
  0.50000000000000000        3.1250000000000000E-002   0.0000000000000000     
  0.53125000000000000        3.1250000000000000E-002   0.0000000000000000     
  0.56250000000000000        3.1250000000000000E-002   0.0000000000000000     
  0.59375000000000000        3.1250000000000000E-002   0.0000000000000000     
  0.62500000000000000        3.1250000000000000E-002   0.0000000000000000     
  0.50000000000000000        6.2500000000000000E-002   0.0000000000000000     
  0.53125000000000000        6.2500000000000000E-002   0.0000000000000000     
  0.56250000000000000        6.2500000000000000E-002   0.0000000000000000     
  0.59375000000000000        6.2500000000000000E-002   0.0000000000000000     
  0.62500000000000000        6.2500000000000000E-002   0.0000000000000000     
  0.50000000000000000        9.3750000000000000E-002   0.0000000000000000     
  0.53125000000000000        9.3750000000000000E-002   0.0000000000000000     
  0.56250000000000000        9.3750000000000000E-002   0.0000000000000000     
  0.59375000000000000        9.3750000000000000E-002   0.0000000000000000     
  0.62500000000000000        9.3750000000000000E-002   0.0000000000000000     
  0.50000000000000000       0.12500000000000000        0.0000000000000000     
  0.53125000000000000       0.12500000000000000        0.0000000000000000     
  0.56250000000000000       0.12500000000000000        0.0000000000000000     
[...]
 <PointData>
 <DataArray  type="Float64" Name="disp" NumberOfComponents="3" format="ascii">
   0.0000000000000000        0.0000000000000000        0.0000000000000000     
   3.3448756466014477E-004   3.4871374806633940E-004   0.0000000000000000     
   5.6616152223128060E-004   7.3638455213840561E-004   0.0000000000000000     
   6.9502187271340728E-004   1.1630124122161984E-003   0.0000000000000000     
   7.2106861610652512E-004   1.6285973282997180E-003   0.0000000000000000     
   0.0000000000000000        0.0000000000000000        0.0000000000000000     
   1.8879354881977766E-004   3.5799848179705407E-004   0.0000000000000000     
   3.2570710419773904E-004   7.4233950000106741E-004   0.0000000000000000     
   4.1074066613388399E-004   1.1530230546120401E-003   0.0000000000000000     
   4.4389423462821255E-004   1.5900491456299721E-003   0.0000000000000000     
   0.0000000000000000        0.0000000000000000        0.0000000000000000     
   8.9334902642148006E-005   3.7284021784809139E-004   0.0000000000000000     
   1.6063022667171797E-004   7.5927652691422636E-004   0.0000000000000000     
   2.1388597208870982E-004   1.1593089271984048E-003   0.0000000000000000     
   2.4910213889312363E-004   1.5729374187006271E-003   0.0000000000000000     
   0.0000000000000000        0.0000000000000000        0.0000000000000000     
   3.6111626127255804E-005   3.9323895621945146E-004   0.0000000000000000     
   7.0930889653217469E-005   7.8719563287788234E-004   0.0000000000000000     
   1.0445779057788502E-004   1.1818700299752927E-003   0.0000000000000000     
   1.3669232890125844E-004   1.5772621475116820E-003   0.0000000000000000     
   0.0000000000000000        0.0000000000000000        0.0000000000000000     
   2.9123719275101033E-005   4.1919469691113423E-004   0.0000000000000000     
   5.6609093142237520E-005   8.2609681789203525E-004   0.0000000000000000     
   8.2456121601409468E-005   1.2207063629427030E-003   0.0000000000000000     
   1.0666480465261687E-004   1.6030233320631377E-003   0.0000000000000000     
   7.2106861610652512E-004   1.6285973282997180E-003   0.0000000000000000     
   6.6989298819059343E-004   2.0366784113669489E-003   0.0000000000000000     
   5.6708622474557194E-004   2.2907947723958756E-003   0.0000000000000000     
   4.1264832577146059E-004   2.3909464113864983E-003   0.0000000000000000     
   2.0657929126825940E-004   2.3371333283388170E-003   0.0000000000000000     
   4.4389423462821255E-004   1.5900491456299721E-003   0.0000000000000000     
   4.3041759166318372E-004   1.9831493768861456E-003   0.0000000000000000     
   3.7556051922125653E-004   2.2620553522118433E-003   0.0000000000000000     
   2.7932301730243097E-004   2.4267670716070647E-003   0.0000000000000000     
   1.4170508590670699E-004   2.4772845350718091E-003   0.0000000000000000     
   2.4910213889312363E-004   1.5729374187006271E-003   0.0000000000000000     
   2.5885954512596440E-004   1.9524653066325354E-003   0.0000000000000000     
   2.3573900882823708E-004   2.2501958962057736E-003   0.0000000000000000     
   1.7974052999994165E-004   2.4661291874203406E-003   0.0000000000000000     
   9.0864108641078138E-005   2.6002651802762367E-003   0.0000000000000000     
   1.3669232890125844E-004   1.5772621475116820E-003   0.0000000000000000     
   1.5521884857893535E-004   1.9446262006061175E-003   0.0000000000000000     
   1.4762169356651337E-004   2.2552164043776655E-003   0.0000000000000000     
   1.1390086386399259E-004   2.5090327588263256E-003   0.0000000000000000     
   5.4056359471372935E-005   2.7060752639520985E-003   0.0000000000000000     
   1.0666480465261687E-004   1.6030233320631377E-003   0.0000000000000000     
   1.1949550202209662E-004   1.9596320588068923E-003   0.0000000000000000     
   1.1120857343608560E-004   2.2771168767275200E-003   0.0000000000000000     
   8.1804018894583846E-005   2.5554777858250214E-003   0.0000000000000000     
   3.1281838397591329E-005   2.7947147860993950E-003   0.0000000000000000     
   2.0657929126825940E-004   2.3371333283388170E-003   0.0000000000000000     
   7.4820810065572908E-006   2.3070966956279327E-003   0.0000000000000000     
  -1.2604034524305691E-004   2.4785776856289460E-003   0.0000000000000000     
  -1.9398798748058305E-004   2.8515762983418584E-003   0.0000000000000000     
  -1.9636084570602127E-004   3.4260925337666675E-003   0.0000000000000000     
   1.4170508590670699E-004   2.4772845350718091E-003   0.0000000000000000     
  -1.6780700911565847E-005   2.5220527271272121E-003   0.0000000000000000     
  -1.7562176909803785E-004   2.6695166322944068E-003   0.0000000000000000     
  -3.3481811865270910E-004   2.9196762505733927E-003   0.0000000000000000     
  -4.9436974957557949E-004   3.2725315819641704E-003   0.0000000000000000     
   9.0864108641078138E-005   2.6002651802762367E-003   0.0000000000000000     
  -3.3346372507762919E-005   2.7051239188372999E-003   0.0000000000000000     
  -1.9534703070599104E-004   2.8332254471673682E-003   0.0000000000000000     
  -3.9513786595360629E-004   2.9845697652664408E-003   0.0000000000000000     
  -6.3271887825060863E-004   3.1591568731345184E-003   0.0000000000000000     
   5.4056359471372935E-005   2.7060752639520985E-003   0.0000000000000000     
  -4.2214933782033995E-005   2.8563102707581953E-003   0.0000000000000000     
  -1.8521613006691658E-004   2.9697041302478313E-003   0.0000000000000000     
  -3.7494722938327473E-004   3.0462568424210017E-003   0.0000000000000000     
  -6.1140823173110861E-004   3.0859684072777113E-003   0.0000000000000000     
   3.1281838397591329E-005   2.7947147860993950E-003   0.0000000000000000     
  -4.3386384734379020E-005   2.9756117828899000E-003   0.0000000000000000     
  -1.4522906718081427E-004   3.0789526815357946E-003   0.0000000000000000     
  -2.7424620894171437E-004   3.1047374820370776E-003   0.0000000000000000     
  -4.3043781001707944E-004   3.0529661843937488E-003   0.0000000000000000     
  -1.9636084570602127E-004   3.4260925337666675E-003   0.0000000000000000     
  -3.0678988210493545E-004   3.7940343203737557E-003   0.0000000000000000     
  -6.9890605886288950E-004   3.5473095866335029E-003   0.0000000000000000     
  -1.3727093759798832E-003   2.6859183325459086E-003   0.0000000000000000     
  -2.3281998334559171E-003   1.2098605581109738E-003   0.0000000000000000     
  -4.9436974957557949E-004   3.2725315819641704E-003   0.0000000000000000     
  -6.4731384406119751E-004   3.4719607763109470E-003   0.0000000000000000     
  -7.8668758430411171E-004   3.2618419834579276E-003   0.0000000000000000     
  -9.1249097030432220E-004   2.6421752034051144E-003   0.0000000000000000     
  -1.0247240020618289E-003   1.6129604361525063E-003   0.0000000000000000     
  -6.3271887825060863E-004   3.1591568731345184E-003   0.0000000000000000     
  -7.9902465330160884E-004   3.2239214307327162E-003   0.0000000000000000     
  -7.8498977681121782E-004   3.0457980980221509E-003   0.0000000000000000     
  -5.9061424877943503E-004   2.6247868750028228E-003   0.0000000000000000     
  -2.1589806920626118E-004   1.9608877616747308E-003   0.0000000000000000     
  -6.1140823173110861E-004   3.0859684072777113E-003   0.0000000000000000     
  -7.6192230982616901E-004   3.0499162836390647E-003   0.0000000000000000     
  -6.9381263638420665E-004   2.8991779303261726E-003   0.0000000000000000     
  -4.0707921140522186E-004   2.6337533473390338E-003   0.0000000000000000     
   9.8277965110785649E-005   2.2536425346776482E-003   0.0000000000000000     
  -4.3043781001707944E-004   3.0529661843937488E-003   0.0000000000000000     
  -5.3600681363487801E-004   2.9499453350299927E-003   0.0000000000000000     
  -5.1315616302307905E-004   2.8219814803699919E-003   0.0000000000000000     
  -3.6188585818168240E-004   2.6690746204137469E-003   0.0000000000000000     
  -8.2195899110688213E-005   2.4912247551612580E-003   0.0000000000000000     
  -2.3281998334559171E-003   1.2098605581109738E-003   0.0000000000000000     
  -2.6091091022107204E-003   8.2644401093578262E-006   0.0000000000000000     
  -1.2591688531640222E-003  -2.9741844678279157E-005   0.0000000000000000     
   1.7216209136841775E-003   1.0958417037480633E-003   0.0000000000000000     
   6.3332601983338782E-003   3.3850150853883851E-003   0.0000000000000000     
  -1.0247240020618289E-003   1.6129604361525063E-003   0.0000000000000000     
  -9.8181849771821969E-004   7.1064627158587391E-004   0.0000000000000000     
  -6.4220627541508341E-004   4.7168129959098825E-004   0.0000000000000000     
  -5.8873351524194524E-006   8.9606552016784937E-004   0.0000000000000000     
   9.2713832306977133E-004   1.9837989333164564E-003   0.0000000000000000     
  -2.1589806920626118E-004   1.9608877616747308E-003   0.0000000000000000     
  -9.3995621182995928E-006   1.3209896931684049E-003   0.0000000000000000     
  -3.1967705154215388E-004   9.7198160461437269E-004   0.0000000000000000     
  -1.1467305374778243E-003   9.1386349601263418E-004   0.0000000000000000     
  -2.4905600199253116E-003   1.1466353673631898E-003   0.0000000000000000     
   9.8277965110785649E-005   2.2536425346776482E-003   0.0000000000000000     
   3.0814770458904015E-004   1.8392947048569504E-003   0.0000000000000000     
  -2.9158118154523410E-004   1.4711590703918734E-003   0.0000000000000000     
  -1.7009086932920370E-003   1.1492356312824176E-003   0.0000000000000000     
  -3.9198348306513685E-003   8.7352438752858331E-004   0.0000000000000000     
  -8.2195899110688213E-005   2.4912247551612580E-003   0.0000000000000000     
  -2.9176697596200430E-005   2.2655613066515103E-003   0.0000000000000000     
  -5.5791866542432374E-004   1.9692136969234912E-003   0.0000000000000000     
  -1.6684218025950575E-003   1.6021819259772003E-003   0.0000000000000000     
  -3.3606861091084019E-003   1.1644659938126376E-003   0.0000000000000000     
   6.3332601983338782E-003   3.3850150853883851E-003   0.0000000000000000     
   9.9129767146321785E-003   5.4789044835845836E-003   0.0000000000000000     
   9.7979981764261728E-003   6.0186360816785554E-003   0.0000000000000000     
   5.9883245837158688E-003   5.0042098796703035E-003   0.0000000000000000     
  -1.5160440634987421E-003   2.4356258775598246E-003   0.0000000000000000     
   9.2713832306977133E-004   1.9837989333164564E-003   0.0000000000000000     
   1.6638225355718073E-003   3.0760408723134619E-003   0.0000000000000000     
   1.7111171386740049E-003   3.5139506704355132E-003   0.0000000000000000     
   1.0690221323763638E-003   3.2975283276826120E-003   0.0000000000000000     
  -2.6246248332111727E-004   2.4267738440547568E-003   0.0000000000000000     
  -2.4905600199253116E-003   1.1466353673631898E-003   0.0000000000000000     
  -3.5167405438489463E-003   1.4986076107938286E-003   0.0000000000000000     
  -3.3908471542130644E-003   1.7980906184323401E-003   0.0000000000000000     
  -2.1128798510176650E-003   2.0450843902787251E-003   0.0000000000000000     
   3.1716136573725195E-004   2.2395889263329819E-003   0.0000000000000000     
  -3.9198348306513685E-003   8.7352438752858331E-004   0.0000000000000000     
  -5.6287125236300830E-003   7.4660469902568488E-004   0.0000000000000000     
  -5.5078947022350324E-003   8.7105592566903798E-004   0.0000000000000000     
  -3.5573813664662160E-003   1.2468780674586425E-003   0.0000000000000000     
   2.2282748367636468E-004   1.8740711243944985E-003   0.0000000000000000     
  -3.3606861091084019E-003   1.1644659938126376E-003   0.0000000000000000     
  -4.6720934037716008E-003   8.2003213700903058E-004   0.0000000000000000     
  -4.6400255053918966E-003   7.3284659214560631E-004   0.0000000000000000     
  -3.2644824139692894E-003   9.0290935922236520E-004   0.0000000000000000     
  -5.4546412950378037E-004   1.3302204382393071E-003   0.0000000000000000     
  -1.5160440634987421E-003   2.4356258775598246E-003   0.0000000000000000     
  -8.8516394595308610E-003   2.2281151489131215E-004   0.0000000000000000     
  -1.2154993298693692E-002   2.7569423120895795E-004   0.0000000000000000     
  -1.1426105580987242E-002   2.5942740265127626E-003   0.0000000000000000     
  -6.6649763064115007E-003   7.1785509008027246E-003   0.0000000000000000     
  -2.6246248332111727E-004   2.4267738440547568E-003   0.0000000000000000     
  -1.5865646011120941E-003   1.6334641979268987E-003   0.0000000000000000     
  -2.2065121136902281E-003   1.6493763676739854E-003   0.0000000000000000     
  -2.1223050210555203E-003   2.4745103532960158E-003   0.0000000000000000     
  -1.3339433232079706E-003   4.1088661547929919E-003   0.0000000000000000     
   3.1716136573725195E-004   2.2395889263329819E-003   0.0000000000000000     
   2.6691732758740406E-003   2.3607381849406377E-003   0.0000000000000000     
   3.7130526592150511E-003   2.3876661244472204E-003   0.0000000000000000     
   3.4487995157602845E-003   2.3203727448527288E-003   0.0000000000000000     
   1.8764138455097420E-003   2.1588580461571636E-003   0.0000000000000000     
   2.2282748367636468E-004   1.8740711243944985E-003   0.0000000000000000     
   3.9155741714275412E-003   2.4046334759325310E-003   0.0000000000000000     
   5.6037010200221445E-003   2.4905635015286653E-003   0.0000000000000000     
   5.2872080294601772E-003   2.1318612011829020E-003   0.0000000000000000     
   2.9660951997416362E-003   1.3285265748952404E-003   0.0000000000000000     
  -5.4546412950378037E-004   1.3302204382393071E-003   0.0000000000000000     
   2.1526380855484088E-003   1.7651500709025770E-003   0.0000000000000000     
   3.4654329687310538E-003   1.9580684989183193E-003   0.0000000000000000     
   3.3929205200441551E-003   1.9089757222865344E-003   0.0000000000000000     
   1.9351007394877127E-003   1.6178717410072221E-003   0.0000000000000000     
  -6.6649763064115007E-003   7.1785509008027246E-003   0.0000000000000000     
  -2.6817339864791748E-003   8.9220330715178015E-003   0.0000000000000000     
  -4.2865071327029616E-003   2.7182287560969438E-003   0.0000000000000000     
  -1.1479295745082862E-002  -1.1432862045459843E-002   0.0000000000000000     
  -2.4260099823618875E-002  -3.3531239333152565E-002   0.0000000000000000     
  -1.3339433232079706E-003   4.1088661547929919E-003   0.0000000000000000     
  -2.8287268741715357E-004   5.2777260000383174E-003   0.0000000000000000     
   5.8946121904735198E-004   4.7063721169053989E-003   0.0000000000000000     
   1.2830583961855461E-003   2.3948045053942342E-003   0.0000000000000000     
   1.7979188439974318E-003  -1.6569768344951753E-003   0.0000000000000000     
   1.8764138455097420E-003   2.1588580461571636E-003   0.0000000000000000     
   1.1241526416574273E-003   2.9494438648490547E-003   0.0000000000000000     
   3.3202728973973457E-003   5.7384520374169348E-003   0.0000000000000000     
   8.4647746127294969E-003   1.0525882563860804E-002   0.0000000000000000     
   1.6557657787653880E-002   1.7311735444180659E-002   0.0000000000000000     
   2.9660951997416362E-003   1.3285265748952404E-003   0.0000000000000000     
   1.5393420007445687E-003   1.9371866659500139E-003   0.0000000000000000     
   3.9059279023470174E-003   5.8144685176315554E-003   0.0000000000000000     
   1.0065852904548983E-002   1.2960372129939866E-002   0.0000000000000000     
   2.0019117007350470E-002   2.3374897502874945E-002   0.0000000000000000     
   1.9351007394877127E-003   1.6178717410072221E-003   0.0000000000000000     
   9.6269538984426989E-004   2.2409544033411932E-003   0.0000000000000000     
   2.3464262338963706E-003   4.9344215575492598E-003   0.0000000000000000     
   6.0862932716440159E-003   9.6982732036314211E-003   0.0000000000000000     
   1.2182296503087204E-002   1.6532509341587676E-002   0.0000000000000000     
   0.0000000000000000        0.0000000000000000        0.0000000000000000     
   2.9123719275101033E-005   4.1919469691113423E-004   0.0000000000000000     
   5.6609093142237520E-005   8.2609681789203525E-004   0.0000000000000000     
   8.2456121601409468E-005   1.2207063629427030E-003   0.0000000000000000     
   1.0666480465261687E-004   1.6030233320631377E-003   0.0000000000000000     
   0.0000000000000000        0.0000000000000000        0.0000000000000000     
   4.4672856779839691E-005   4.4665781329724806E-004   0.0000000000000000     
   8.0054213732744762E-005   8.6983464177351714E-004   0.0000000000000000     
   1.0614407085871525E-004   1.2695304854288068E-003   0.0000000000000000     
   1.2294242815775110E-004   1.6457453442631177E-003   0.0000000000000000     
   0.0000000000000000        0.0000000000000000        0.0000000000000000     
   5.9060713335627723E-005   4.7157867875190126E-004   0.0000000000000000     
   1.0365562801870584E-004   9.1226366433915938E-004   0.0000000000000000     
   1.3378474404923438E-004   1.3220549567617742E-003   0.0000000000000000     
   1.4944806142721330E-004   1.7009525560197460E-003   0.0000000000000000     
   0.0000000000000000        0.0000000000000000        0.0000000000000000     
   7.2287288942465150E-005   4.9395729327509383E-004   0.0000000000000000     
   1.2741333600012076E-004   9.5338388558896244E-004   0.0000000000000000     
   1.6537814117296680E-004   1.3782797769416055E-003   0.0000000000000000     
   1.8618170446100339E-004   1.7686449673330229E-003   0.0000000000000000     
   0.0000000000000000        0.0000000000000000        0.0000000000000000     
   8.4352583600351958E-005   5.1379365686682592E-004   0.0000000000000000     
   1.5132733767698949E-004   9.9319530552292607E-004   0.0000000000000000     
   2.0092426222991265E-004   1.4382049459683000E-003   0.0000000000000000     
   2.3314335725912143E-004   1.8488225782029482E-003   0.0000000000000000     
   1.0666480465261687E-004   1.6030233320631377E-003   0.0000000000000000     
   1.1949550202209662E-004   1.9596320588068923E-003   0.0000000000000000     
   1.1120857343608560E-004   2.2771168767275200E-003   0.0000000000000000     
   8.1804018894583846E-005   2.5554777858250214E-003   0.0000000000000000     
   3.1281838397591329E-005   2.7947147860993950E-003   0.0000000000000000     
   1.2294242815775110E-004   1.6457453442631177E-003   0.0000000000000000     
   1.2651884828251592E-004   1.9958434350061528E-003   0.0000000000000000     
   1.1294289388567325E-004   2.3171889743876161E-003   0.0000000000000000     
   8.2214564967223065E-005   2.6097819624075077E-003   0.0000000000000000     
   3.4333861527165375E-005   2.8736223990658274E-003   0.0000000000000000     
   1.4944806142721330E-004   1.7009525560197460E-003   0.0000000000000000     
   1.5111823018726099E-004   2.0516208829751931E-003   0.0000000000000000     
   1.3926790036399586E-004   2.3767243584902334E-003   0.0000000000000000     
   1.1389707195741793E-004   2.6762629825648689E-003   0.0000000000000000     
   7.5005744967527110E-005   2.9502367551990970E-003   0.0000000000000000     
   1.8618170446100339E-004   1.7686449673330229E-003   0.0000000000000000     
   1.9329364773633184E-004   2.1269644027140122E-003   0.0000000000000000     
   1.9018359287105346E-004   2.4557230290353730E-003   0.0000000000000000     
   1.7685153986516836E-004   2.7549208462971028E-003   0.0000000000000000     
   1.5329748871867655E-004   3.0245578544992038E-003   0.0000000000000000     
   2.3314335725912143E-004   1.8488225782029482E-003   0.0000000000000000     
   2.5304510092972836E-004   2.2218739942226119E-003   0.0000000000000000     
   2.6568997140684607E-004   2.5541849860230333E-003   0.0000000000000000     
   2.7107796869047451E-004   2.8457555536042117E-003   0.0000000000000000     
   2.6920909278061361E-004   3.0965856969661478E-003   0.0000000000000000     
   3.1281838397591329E-005   2.7947147860993950E-003   0.0000000000000000     
  -4.3386384734379020E-005   2.9756117828899000E-003   0.0000000000000000     