 <VTKFile type="UnstructuredGrid"  version="0.1"   >
 <UnstructuredGrid>
 <Piece  NumberOfPoints="          1600 "  NumberOfCells="         1024 ">
 <Points>
 <DataArray  type="Float64" NumberOfComponents="3"  format="ascii" >
   0.0000000000000000        0.0000000000000000        0.0000000000000000     
   3.1250000000000000E-002   0.0000000000000000        0.0000000000000000     
   6.2500000000000000E-002   0.0000000000000000        0.0000000000000000     
   9.3750000000000000E-002   0.0000000000000000        0.0000000000000000     
  0.12500000000000000        0.0000000000000000        0.0000000000000000     
   0.0000000000000000        3.1250000000000000E-002   0.0000000000000000     
   3.1250000000000000E-002   3.1250000000000000E-002   0.0000000000000000     
   6.2500000000000000E-002   3.1250000000000000E-002   0.0000000000000000     
   9.3750000000000000E-002   3.1250000000000000E-002   0.0000000000000000     
  0.12500000000000000        3.1250000000000000E-002   0.0000000000000000     
   0.0000000000000000        6.2500000000000000E-002   0.0000000000000000     
   3.1250000000000000E-002   6.2500000000000000E-002   0.0000000000000000     
   6.2500000000000000E-002   6.2500000000000000E-002   0.0000000000000000     
   9.3750000000000000E-002   6.2500000000000000E-002   0.0000000000000000     
  0.12500000000000000        6.2500000000000000E-002   0.0000000000000000     
   0.0000000000000000        9.3750000000000000E-002   0.0000000000000000     
   3.1250000000000000E-002   9.3750000000000000E-002   0.0000000000000000     
   6.2500000000000000E-002   9.3750000000000000E-002   0.0000000000000000     
   9.3750000000000000E-002   9.3750000000000000E-002   0.0000000000000000     
  0.12500000000000000        9.3750000000000000E-002   0.0000000000000000     
   0.0000000000000000       0.12500000000000000        0.0000000000000000     
   3.1250000000000000E-002  0.12500000000000000        0.0000000000000000     
   6.2500000000000000E-002  0.12500000000000000        0.0000000000000000     
   9.3750000000000000E-002  0.12500000000000000        0.0000000000000000     
  0.12500000000000000       0.12500000000000000        0.0000000000000000     
  0.12500000000000000        0.0000000000000000        0.0000000000000000     
  0.15625000000000000        0.0000000000000000        0.0000000000000000     
  0.18750000000000000        0.0000000000000000        0.0000000000000000     
  0.21875000000000000        0.0000000000000000        0.0000000000000000     
  0.25000000000000000        0.0000000000000000        0.0000000000000000     
  0.12500000000000000        3.1250000000000000E-002   0.0000000000000000     
  0.15625000000000000        3.1250000000000000E-002   0.0000000000000000     
  0.18750000000000000        3.1250000000000000E-002   0.0000000000000000     
  0.21875000000000000        3.1250000000000000E-002   0.0000000000000000     
  0.25000000000000000        3.1250000000000000E-002   0.0000000000000000     
  0.12500000000000000        6.2500000000000000E-002   0.0000000000000000     
  0.15625000000000000        6.2500000000000000E-002   0.0000000000000000     
  0.18750000000000000        6.2500000000000000E-002   0.0000000000000000     
  0.21875000000000000        6.2500000000000000E-002   0.0000000000000000     
  0.25000000000000000        6.2500000000000000E-002   0.0000000000000000     
  0.12500000000000000        9.3750000000000000E-002   0.0000000000000000     
  0.15625000000000000        9.3750000000000000E-002   0.0000000000000000     
  0.18750000000000000        9.3750000000000000E-002   0.0000000000000000     
  0.21875000000000000        9.3750000000000000E-002   0.0000000000000000     
  0.25000000000000000        9.3750000000000000E-002   0.0000000000000000     
  0.12500000000000000       0.12500000000000000        0.0000000000000000     
  0.15625000000000000       0.12500000000000000        0.0000000000000000     
  0.18750000000000000       0.12500000000000000        0.0000000000000000     
  0.21875000000000000       0.12500000000000000        0.0000000000000000     
  0.25000000000000000       0.12500000000000000        0.0000000000000000     
  0.25000000000000000        0.0000000000000000        0.0000000000000000     
  0.28125000000000000        0.0000000000000000        0.0000000000000000     
  0.31250000000000000        0.0000000000000000        0.0000000000000000     
  0.34375000000000000        0.0000000000000000        0.0000000000000000     
  0.37500000000000000        0.0000000000000000        0.0000000000000000     
  0.25000000000000000        3.1250000000000000E-002   0.0000000000000000     
  0.28125000000000000        3.1250000000000000E-002   0.0000000000000000     
  0.31250000000000000        3.1250000000000000E-002   0.0000000000000000     
  0.34375000000000000        3.1250000000000000E-002   0.0000000000000000     
  0.37500000000000000        3.1250000000000000E-002   0.0000000000000000     
  0.25000000000000000        6.2500000000000000E-002   0.0000000000000000     
  0.28125000000000000        6.2500000000000000E-002   0.0000000000000000     
  0.31250000000000000        6.2500000000000000E-002   0.0000000000000000     
  0.34375000000000000        6.2500000000000000E-002   0.0000000000000000     
  0.37500000000000000        6.2500000000000000E-002   0.0000000000000000     
  0.25000000000000000        9.3750000000000000E-002   0.0000000000000000     
  0.28125000000000000        9.3750000000000000E-002   0.0000000000000000     
  0.31250000000000000        9.3750000000000000E-002   0.0000000000000000     
  0.34375000000000000        9.3750000000000000E-002   0.0000000000000000     
  0.37500000000000000        9.3750000000000000E-002   0.0000000000000000     
  0.25000000000000000       0.12500000000000000        0.0000000000000000     
  0.28125000000000000       0.12500000000000000        0.0000000000000000     
  0.31250000000000000       0.12500000000000000        0.0000000000000000     
  0.34375000000000000       0.12500000000000000        0.0000000000000000     
  0.37500000000000000       0.12500000000000000        0.0000000000000000     
  0.37500000000000000        0.0000000000000000        0.0000000000000000     
  0.40625000000000000        0.0000000000000000        0.0000000000000000     
  0.43750000000000000        0.0000000000000000        0.0000000000000000     
  0.46875000000000000        0.0000000000000000        0.0000000000000000     
  0.50000000000000000        0.0000000000000000        0.0000000000000000     
  0.37500000000000000        3.1250000000000000E-002   0.0000000000000000     
  0.40625000000000000        3.1250000000000000E-002   0.0000000000000000     
  0.43750000000000000        3.1250000000000000E-002   0.0000000000000000     
  0.46875000000000000        3.1250000000000000E-002   0.0000000000000000     
  0.50000000000000000        3.1250000000000000E-002   0.0000000000000000     
  0.37500000000000000        6.2500000000000000E-002   0.0000000000000000     
  0.40625000000000000        6.2500000000000000E-002   0.0000000000000000     
  0.43750000000000000        6.2500000000000000E-002   0.0000000000000000     
  0.46875000000000000        6.2500000000000000E-002   0.0000000000000000     
  0.50000000000000000        6.2500000000000000E-002   0.0000000000000000     
  0.37500000000000000        9.3750000000000000E-002   0.0000000000000000     
  0.40625000000000000        9.3750000000000000E-002   0.0000000000000000     
  0.43750000000000000        9.3750000000000000E-002   0.0000000000000000     
  0.46875000000000000        9.3750000000000000E-002   0.0000000000000000     
  0.50000000000000000        9.3750000000000000E-002   0.0000000000000000     
  0.37500000000000000       0.12500000000000000        0.0000000000000000     
  0.40625000000000000       0.12500000000000000        0.0000000000000000     
  0.43750000000000000       0.12500000000000000        0.0000000000000000     
  0.46875000000000000       0.12500000000000000        0.0000000000000000     
  0.50000000000000000       0.12500000000000000        0.0000000000000000     
  0.50000000000000000        0.0000000000000000        0.0000000000000000     
  0.53125000000000000        0.0000000000000000        0.0000000000000000     
  0.56250000000000000        0.0000000000000000        0.0000000000000000     
  0.59375000000000000        0.0000000000000000        0.0000000000000000     
  0.62500000000000000        0.0000000000000000        0.0000000000000000     
  0.50000000000000000        3.1250000000000000E-002   0.0000000000000000     
  0.53125000000000000        3.1250000000000000E-002   0.0000000000000000     
  0.56250000000000000        3.1250000000000000E-002   0.0000000000000000     
  0.59375000000000000        3.1250000000000000E-002   0.0000000000000000     
  0.62500000000000000        3.1250000000000000E-002   0.0000000000000000     
  0.50000000000000000        6.2500000000000000E-002   0.0000000000000000     
  0.53125000000000000        6.2500000000000000E-002   0.0000000000000000     
  0.56250000000000000        6.2500000000000000E-002   0.0000000000000000     
  0.59375000000000000        6.2500000000000000E-002   0.0000000000000000     
  0.62500000000000000        6.2500000000000000E-002   0.0000000000000000     
  0.50000000000000000        9.3750000000000000E-002   0.0000000000000000     
  0.53125000000000000        9.3750000000000000E-002   0.0000000000000000     
  0.56250000000000000        9.3750000000000000E-002   0.0000000000000000     
  0.59375000000000000        9.3750000000000000E-002   0.0000000000000000     
  0.62500000000000000        9.3750000000000000E-002   0.0000000000000000     
  0.50000000000000000       0.12500000000000000        0.0000000000000000     
  0.53125000000000000       0.12500000000000000        0.0000000000000000     
  0.56250000000000000       0.12500000000000000        0.0000000000000000     
[...]
 <PointData>
 <DataArray  type="Float64" Name="disp" NumberOfComponents="3" format="ascii">
   0.0000000000000000        0.0000000000000000        0.0000000000000000     
   6.0960066400180231E-003   3.7905029923030625E-003   0.0000000000000000     
   1.1666031114864958E-002   7.3239552119992550E-003   0.0000000000000000     
   1.6710073424540804E-002   1.0600356659088577E-002   0.0000000000000000     
   2.1228133569045557E-002   1.3619707333571030E-002   0.0000000000000000     
   0.0000000000000000        0.0000000000000000        0.0000000000000000     
   4.8911566456067701E-003   3.0222122880819505E-003   0.0000000000000000     
   9.5736247922334483E-003   6.0606418766399371E-003   0.0000000000000000     
   1.4047404439880033E-002   9.1152887656739592E-003   0.0000000000000000     
   1.8312495588546526E-002   1.2186152955184016E-002   0.0000000000000000     
   0.0000000000000000        0.0000000000000000        0.0000000000000000     
   3.9535521861082355E-003   2.4251786224245382E-003   0.0000000000000000     
   7.9105941955264335E-003   5.0629960702603272E-003   0.0000000000000000     
   1.1871126028254592E-002   7.9134523435073680E-003   0.0000000000000000     
   1.5835147684292714E-002   1.0976547442165660E-002   0.0000000000000000     
   0.0000000000000000        0.0000000000000000        0.0000000000000000     
   3.2831932615224198E-003   1.9994019953308256E-003   0.0000000000000000     
   6.6769393247439121E-003   4.3310177928604270E-003   0.0000000000000000     
   1.0181238189664477E-002   6.9948473925888046E-003   0.0000000000000000     
   1.3796089856284116E-002   9.9908907945159588E-003   0.0000000000000000     
   0.0000000000000000        0.0000000000000000        0.0000000000000000     
   2.8800798718493217E-003   1.7448824068008128E-003   0.0000000000000000     
   5.8726601798858849E-003   3.8647070444402364E-003   0.0000000000000000     
   8.9777409241096912E-003   6.3594739129182697E-003   0.0000000000000000     
   1.2195322104520739E-002   9.2291830122349146E-003   0.0000000000000000     
   2.1228133569045557E-002   1.3619707333571030E-002   0.0000000000000000     
   2.5433160514619302E-002   1.6612654173064137E-002   0.0000000000000000     
   2.9538103227502114E-002   1.9809844115185427E-002   0.0000000000000000     
   3.3542961707694004E-002   2.3211277159934894E-002   0.0000000000000000     
   3.7447735955194947E-002   2.6816953307312548E-002   0.0000000000000000     
   1.8312495588546526E-002   1.2186152955184016E-002   0.0000000000000000     
   2.2407126486717468E-002   1.5341622291505010E-002   0.0000000000000000     
   2.6369525382877398E-002   1.8650084620971848E-002   0.0000000000000000     
   3.0199692277026319E-002   2.2111539943584519E-002   0.0000000000000000     
   3.3897627169164231E-002   2.5725988259343028E-002   0.0000000000000000     
   1.5835147684292714E-002   1.0976547442165660E-002   0.0000000000000000     
   1.9730869240485099E-002   1.4211131676208058E-002   0.0000000000000000     
   2.3486500773676054E-002   1.7576055355607426E-002   0.0000000000000000     
   2.7102042283865573E-002   2.1071318480363765E-002   0.0000000000000000     
   3.0577493771053680E-002   2.4696921050477064E-002   0.0000000000000000     
   1.3796089856284116E-002   9.9908907945159588E-003   0.0000000000000000     
   1.7404388775922194E-002   1.3221182327173281E-002   0.0000000000000000     
   2.0889029399898083E-002   1.6587756319092175E-002   0.0000000000000000     
   2.4250011728211784E-002   2.0090612770272635E-002   0.0000000000000000     
   2.7487335760863294E-002   2.3729751680714659E-002   0.0000000000000000     
   1.2195322104520739E-002   9.2291830122349146E-003   0.0000000000000000     
   1.5427685093028764E-002   1.2371774244400682E-002   0.0000000000000000     
   1.8577111261543489E-002   1.5685187511426085E-002   0.0000000000000000     
   2.1643600610064928E-002   1.9169422813311125E-002   0.0000000000000000     
   2.4627153138593070E-002   2.2824480150055809E-002   0.0000000000000000     
   3.7447735955194947E-002   2.6816953307312548E-002   0.0000000000000000     
   4.1256471246639809E-002   3.0622161760419240E-002   0.0000000000000000     
   4.4973212858663417E-002   3.4622191722355852E-002   0.0000000000000000     
   4.8597960791265778E-002   3.8817043193122375E-002   0.0000000000000000     
   5.2130715044446885E-002   4.3206716172718818E-002   0.0000000000000000     
   3.3897627169164231E-002   2.5725988259343028E-002   0.0000000000000000     
   3.7486366179482533E-002   2.9522224655911318E-002   0.0000000000000000     
   4.0988945428172628E-002   3.3529044220953319E-002   0.0000000000000000     
   4.4405364915234523E-002   3.7746446954469041E-002   0.0000000000000000     
   4.7735624640668210E-002   4.2174432856458471E-002   0.0000000000000000     
   3.0577493771053680E-002   2.4696921050477064E-002   0.0000000000000000     
   3.3942240985341252E-002   2.8497398139116028E-002   0.0000000000000000     
   3.7225669676829221E-002   3.2517284819449328E-002   0.0000000000000000     
   4.0427779845517577E-002   3.6756581091476989E-002   0.0000000000000000     
   4.3548571491406327E-002   4.1215286955198979E-002   0.0000000000000000     
   2.7487335760863294E-002   2.3729751680714659E-002   0.0000000000000000     
   3.0624095664215971E-002   2.7547682210033370E-002   0.0000000000000000     
   3.3683385604633194E-002   3.1586913517843894E-002   0.0000000000000000     
   3.6665205582114939E-002   3.5847445604146211E-002   0.0000000000000000     
   3.9569555596661227E-002   4.0329278468940327E-002   0.0000000000000000     
   2.4627153138593070E-002   2.2824480150055809E-002   0.0000000000000000     
   2.7531930216106684E-002   2.6673076868663350E-002   0.0000000000000000     
   3.0362093211584531E-002   3.0737930316136981E-002   0.0000000000000000     
   3.3117642125026603E-002   3.5019040492476700E-002   0.0000000000000000     
   3.5798576956432911E-002   3.9516407397682515E-002   0.0000000000000000     
   5.2130715044446885E-002   4.3206716172718818E-002   0.0000000000000000     
   5.5569774802395021E-002   4.7795673892078630E-002   0.0000000000000000     
   5.8913439249298462E-002   5.2588379582135289E-002   0.0000000000000000     
   6.2161708385157229E-002   5.7584833242888787E-002   0.0000000000000000     
   6.5314582209971300E-002   6.2785034874339132E-002   0.0000000000000000     
   4.7735624640668210E-002   4.2174432856458471E-002   0.0000000000000000     
   5.0975988690770489E-002   4.6806414580613520E-002   0.0000000000000000     
   5.4122721151838159E-002   5.1635804780626043E-002   0.0000000000000000     
   5.7175822023871212E-002   5.6662603456496055E-002   0.0000000000000000     
   6.0135291306869662E-002   6.1886810608223569E-002   0.0000000000000000     
   4.3548571491406327E-002   4.1215286955198979E-002   0.0000000000000000     
   4.6583909094725214E-002   4.5880808867622871E-002   0.0000000000000000     
   4.9529657135703960E-002   5.0740553285756197E-002   0.0000000000000000     
   5.2385815614342607E-002   5.5794520209598984E-002   0.0000000000000000     
   5.5152384530641120E-002   6.1042709639151205E-002   0.0000000000000000     
   3.9569555596661227E-002   4.0329278468940327E-002   0.0000000000000000     
   4.2393536014259166E-002   4.5018856753106691E-002   0.0000000000000000     
   4.5134247200895893E-002   4.9902625097525778E-002   0.0000000000000000     
   4.7791689156571372E-002   5.4980583502197554E-002   0.0000000000000000     
   5.0365861881285640E-002   6.0252731967122032E-002   0.0000000000000000     
   3.5798576956432911E-002   3.9516407397682515E-002   0.0000000000000000     
   3.8404869449372381E-002   4.4220558237065014E-002   0.0000000000000000     
   4.0936491347413922E-002   4.9122020215934765E-002   0.0000000000000000     
   4.3393442650557543E-002   5.4220793334291771E-002   0.0000000000000000     
   4.5775723358803248E-002   5.9516877592136044E-002   0.0000000000000000     
   6.5314582209971300E-002   6.2785034874339132E-002   0.0000000000000000     
   6.8373483716709427E-002   6.8176250431206425E-002   0.0000000000000000     
   7.1339835898340351E-002   7.3745745868210769E-002   0.0000000000000000     
   7.4213638754864072E-002   7.9493521185352189E-002   0.0000000000000000     
   7.6994892286280592E-002   8.5419576382630674E-002   0.0000000000000000     
   6.0135291306869662E-002   6.1886810608223569E-002   0.0000000000000000     
   6.3004552194902613E-002   6.7300070638574877E-002   0.0000000000000000     
   6.5787027882039176E-002   7.2894027950316242E-002   0.0000000000000000     
   6.8482718368279349E-002   7.8668682543447707E-002   0.0000000000000000     
   7.1091623653623121E-002   8.4624034417969257E-002   0.0000000000000000     
   5.5152384530641120E-002   6.1042709639151205E-002   0.0000000000000000     
   5.7833421092260487E-002   6.6479052165803063E-002   0.0000000000000000     
   6.0432982506861660E-002   7.2097478380944727E-002   0.0000000000000000     
   6.2951068774444660E-002   7.7897988284576183E-002   0.0000000000000000     
   6.5387679895009487E-002   8.3880581876697446E-002   0.0000000000000000     
   5.0365861881285640E-002   6.0252731967122032E-002   0.0000000000000000     
   5.2860090408783013E-002   6.5713195012890982E-002   0.0000000000000000     
   5.5277699772807831E-002   7.1356097160096166E-002   0.0000000000000000     
   5.7618689973360067E-002   7.7181438408737604E-002   0.0000000000000000     
   5.9883061010439734E-002   8.3189218758815256E-002   0.0000000000000000     
   4.5775723358803248E-002   5.9516877592136044E-002   0.0000000000000000     
   4.8084560144470219E-002   6.5002499179838649E-002   0.0000000000000000     
   5.0321179679877641E-002   7.0669884287770615E-002   0.0000000000000000     
   5.2485581965025521E-002   7.6519032915931956E-002   0.0000000000000000     
   5.4577766999913846E-002   8.2549945064322686E-002   0.0000000000000000     
   7.6994892286280592E-002   8.5419576382630674E-002   0.0000000000000000     
   7.9677903772104333E-002   9.1512624973028506E-002   0.0000000000000000     
   8.2256980491849707E-002   9.7761380469527953E-002   0.0000000000000000     
   8.4732122445516672E-002  0.10416584287212906        0.0000000000000000     
   8.7103329633105270E-002  0.11072601218083178        0.0000000000000000     
   7.1091623653623121E-002   8.4624034417969257E-002   0.0000000000000000     
   7.3608200691528486E-002   9.0747290732015429E-002   0.0000000000000000     
   7.6026906435453484E-002   9.7025658643720730E-002   0.0000000000000000     
   7.8347740885398046E-002  0.10345913815308523        0.0000000000000000     
   8.0570704041362226E-002  0.11004772926010888        0.0000000000000000     
   6.5387679895009487E-002   8.3880581876697446E-002   0.0000000000000000     
   6.7737693310295471E-002   9.0031514772742266E-002   0.0000000000000000     
   6.9995986462041901E-002   9.6337042588144350E-002   0.0000000000000000     
   7.2162559350248831E-002  0.10279716532290366        0.0000000000000000     
   7.4237411974916248E-002  0.10941188297702026        0.0000000000000000     
   5.9883061010439734E-002   8.3189218758815256E-002   0.0000000000000000     
   6.2066381628405255E-002   8.9365297095209004E-002   0.0000000000000000     
   6.4164220571615013E-002   9.5695532302798703E-002   0.0000000000000000     
   6.6176577840069029E-002  0.10217992438158435        0.0000000000000000     
   6.8103453433767294E-002  0.10881847333156593        0.0000000000000000     
   5.4577766999913846E-002   8.2549945064322686E-002   0.0000000000000000     
   5.6594265645857858E-002   8.8748637699415697E-002   0.0000000000000000     
   5.8531608764172786E-002   9.5101127787683898E-002   0.0000000000000000     
   6.0389796354858624E-002  0.10160741532912729        0.0000000000000000     
   6.2168828417915364E-002  0.10826750032374589        0.0000000000000000     
   8.7103329633105270E-002  0.11072601218083178        0.0000000000000000     
   8.9383491576145543E-002  0.11743397374178517        0.0000000000000000     
   9.1585497796167606E-002  0.12428181290113829        0.0000000000000000     
   9.3709348293171429E-002  0.13126952965889113        0.0000000000000000     
   9.5755043067157014E-002  0.13839712401504364        0.0000000000000000     
   8.0570704041362226E-002  0.11004772926010888        0.0000000000000000     
   8.2707299197698786E-002  0.11678360910895594        0.0000000000000000     
   8.4769029648760472E-002  0.12365895484379072        0.0000000000000000     
   8.6755895394547297E-002  0.13067376646461321        0.0000000000000000     
   8.8667896435059262E-002  0.13782804397142334        0.0000000000000000     
   7.4237411974916248E-002  0.10941188297702026        0.0000000000000000     
   7.6230975688793445E-002  0.11617367692121600        0.0000000000000000     
   7.8153681844629813E-002  0.12307502852621280        0.0000000000000000     
   8.0005530442425324E-002  0.13011593779201069        0.0000000000000000     
   8.1786521482179977E-002  0.13729640471860960        0.0000000000000000     
   6.8103453433767294E-002  0.10881847333156593        0.0000000000000000     
   6.9954521049429549E-002  0.11560417717856536        0.0000000000000000     
   7.1739454383775630E-002  0.12253003394840457        0.0000000000000000     
   7.3458253436805482E-002  0.12959604364108357        0.0000000000000000     
   7.5110918208519173E-002  0.13680220625660239        0.0000000000000000     
   6.2168828417915364E-002  0.10826750032374589        0.0000000000000000     
   6.3877935279607126E-002  0.11507510988100403        0.0000000000000000     
   6.5526347266197937E-002  0.12202397111036602        0.0000000000000000     
   6.7114064377687840E-002  0.12911408401183189        0.0000000000000000     
   6.8641086614076821E-002  0.13634544858540165        0.0000000000000000     
   9.5755043067157014E-002  0.13839712401504364        0.0000000000000000     
   9.7700446114594441E-002  0.14564564978172989        0.0000000000000000     
   9.9523421431953807E-002  0.15299616077108391        0.0000000000000000     
  0.10122396901923507       0.16044865698310565        0.0000000000000000     
  0.10280208887643826       0.16800313841779516        0.0000000000000000     
   8.8667896435059262E-002  0.13782804397142334        0.0000000000000000     
   9.0488981900040552E-002  0.14510281517633891        0.0000000000000000     
   9.2203100919235351E-002  0.15247910789147748        0.0000000000000000     
   9.3810253492643672E-002  0.15995692211683910        0.0000000000000000     
   9.5310439620265489E-002  0.16753625785242376        0.0000000000000000     
   8.1786521482179977E-002  0.13729640471860960        0.0000000000000000     
   8.3483975338219926E-002  0.14459716861131727        0.0000000000000000     
   8.5085212384871281E-002  0.15199896877544139        0.0000000000000000     
   8.6590232622134070E-002  0.15950180521098198        0.0000000000000000     
   8.7999036050008278E-002  0.16710567791793901        0.0000000000000000     
   7.5110918208519173E-002  0.13680220625660239        0.0000000000000000     
   7.6685426429132564E-002  0.14412871008666503        0.0000000000000000     
   7.8169755828861584E-002  0.15155574342297565        0.0000000000000000     
   7.9563906407706275E-002  0.15908330626553432        0.0000000000000000     
   8.0867878165666623E-002  0.16671139861434089        0.0000000000000000     
   6.8641086614076821E-002  0.13634544858540165        0.0000000000000000     
   7.0093335172778437E-002  0.14369743960238215        0.0000000000000000     
   7.1456731251206260E-002  0.15114943183408031        0.0000000000000000     
   7.2731274849360275E-002  0.15870142528049602        0.0000000000000000     
   7.3916965967240511E-002  0.16635341994162944        0.0000000000000000     
   0.0000000000000000        0.0000000000000000        0.0000000000000000     
   2.8800798718493217E-003   1.7448824068008128E-003   0.0000000000000000     
   5.8726601798858849E-003   3.8647070444402364E-003   0.0000000000000000     
   8.9777409241096912E-003   6.3594739129182697E-003   0.0000000000000000     
   1.2195322104520739E-002   9.2291830122349146E-003   0.0000000000000000     
   0.0000000000000000        0.0000000000000000        0.0000000000000000     
   2.6103537726686636E-003   1.5889622125183076E-003   0.0000000000000000     
   5.2897617591347087E-003   3.5567537867719377E-003   0.0000000000000000     
   8.0382239593981327E-003   5.9033747227608896E-003   0.0000000000000000     
   1.0855740373458938E-002   8.6288250204851619E-003   0.0000000000000000     
   0.0000000000000000        0.0000000000000000        0.0000000000000000     
   2.3401567195601674E-003   1.4589837681671183E-003   0.0000000000000000     
   4.7202490606727361E-003   3.2998479816277152E-003   0.0000000000000000     
   7.1402770233377046E-003   5.5225926403817890E-003   0.0000000000000000     
   9.6002406075550769E-003   8.1272177444293436E-003   0.0000000000000000     
   0.0000000000000000        0.0000000000000000        0.0000000000000000     
   2.0694887125238329E-003   1.3549470737472444E-003   0.0000000000000000     
   4.1641220844999697E-003   3.0939896290075679E-003   0.0000000000000000     
   6.2839001159284086E-003   5.2171276657809714E-003   0.0000000000000000     
   8.4288228068091497E-003   7.7243611840674530E-003   0.0000000000000000     
   0.0000000000000000        0.0000000000000000        0.0000000000000000     
   1.7983497515596607E-003   1.2768521292586860E-003   0.0000000000000000     
   3.6213808306164077E-003   2.9391787289114973E-003   0.0000000000000000     
   5.4690932371702422E-003   4.9869797989584332E-003   0.0000000000000000     
   7.3414869712211612E-003   7.4202553393994952E-003   0.0000000000000000     
   1.2195322104520739E-002   9.2291830122349146E-003   0.0000000000000000     
   1.5427685093028764E-002   1.2371774244400682E-002   0.0000000000000000     
   1.8577111261543489E-002   1.5685187511426085E-002   0.0000000000000000     
   2.1643600610064928E-002   1.9169422813311125E-002   0.0000000000000000     
   2.4627153138593070E-002   2.2824480150055809E-002   0.0000000000000000     
   1.0855740373458938E-002   8.6288250204851619E-003   0.0000000000000000     
   1.3689025183469861E-002   1.1650847573004783E-002   0.0000000000000000     
   1.6484792571583640E-002   1.4887185273379766E-002   0.0000000000000000     
   1.9243042537800271E-002   1.8337838121610116E-002   0.0000000000000000     
   2.1963775082119764E-002   2.2002806117695835E-002   0.0000000000000000     
   9.6002406075550769E-003   8.1272177444293436E-003   0.0000000000000000     
   1.2076676038910571E-002   1.1046342458100109E-002   0.0000000000000000     
   1.4546119542989908E-002   1.4212585945723819E-002   0.0000000000000000     
   1.7008571119793089E-002   1.7625948207300471E-002   0.0000000000000000     
   1.9464030769320115E-002   2.1286429242830071E-002   0.0000000000000000     
   8.4288228068091497E-003   7.7243611840674530E-003   0.0000000000000000     
   1.0590637659350881E-002   1.0558258899686661E-002   0.0000000000000000     
   1.2761092175762287E-002   1.3661389528458240E-002   0.0000000000000000     
   1.4940186356043366E-002   1.7033753070382188E-002   0.0000000000000000     
   1.7127920200194130E-002   2.0675349525458513E-002   0.0000000000000000     
   7.3414869712211612E-003   7.4202553393994952E-003   0.0000000000000000     
   9.2309100447907980E-003   1.0186596897764440E-002   0.0000000000000000     
   1.1129710469900784E-002   1.3233596021583034E-002   0.0000000000000000     
   1.3037888246551119E-002   1.6561252710855272E-002   0.0000000000000000     
   1.4955443374741802E-002   2.0169566965581157E-002   0.0000000000000000     
   2.4627153138593070E-002   2.2824480150055809E-002   0.0000000000000000     
   2.7531930216106684E-002   2.6673076868663350E-002   0.0000000000000000     