 <VTKFile type="UnstructuredGrid"  version="0.1"   >
 <UnstructuredGrid>
 <Piece  NumberOfPoints="          1600 "  NumberOfCells="         1024 ">
 <Points>
 <DataArray  type="Float64" NumberOfComponents="3"  format="ascii" >
   0.0000000000000000        0.0000000000000000        0.0000000000000000     
   3.1250000000000000E-002   0.0000000000000000        0.0000000000000000     
   6.2500000000000000E-002   0.0000000000000000        0.0000000000000000     
   9.3750000000000000E-002   0.0000000000000000        0.0000000000000000     
  0.12500000000000000        0.0000000000000000        0.0000000000000000     
   0.0000000000000000        3.1250000000000000E-002   0.0000000000000000     
   3.1250000000000000E-002   3.1250000000000000E-002   0.0000000000000000     
   6.2500000000000000E-002   3.1250000000000000E-002   0.0000000000000000     
   9.3750000000000000E-002   3.1250000000000000E-002   0.0000000000000000     
  0.12500000000000000        3.1250000000000000E-002   0.0000000000000000     
   0.0000000000000000        6.2500000000000000E-002   0.0000000000000000     
   3.1250000000000000E-002   6.2500000000000000E-002   0.0000000000000000     
   6.2500000000000000E-002   6.2500000000000000E-002   0.0000000000000000     
   9.3750000000000000E-002   6.2500000000000000E-002   0.0000000000000000     
  0.12500000000000000        6.2500000000000000E-002   0.0000000000000000     
   0.0000000000000000        9.3750000000000000E-002   0.0000000000000000     
   3.1250000000000000E-002   9.3750000000000000E-002   0.0000000000000000     
   6.2500000000000000E-002   9.3750000000000000E-002   0.0000000000000000     
   9.3750000000000000E-002   9.3750000000000000E-002   0.0000000000000000     
  0.12500000000000000        9.3750000000000000E-002   0.0000000000000000     
   0.0000000000000000       0.12500000000000000        0.0000000000000000     
   3.1250000000000000E-002  0.12500000000000000        0.0000000000000000     
   6.2500000000000000E-002  0.12500000000000000        0.0000000000000000     
   9.3750000000000000E-002  0.12500000000000000        0.0000000000000000     
  0.12500000000000000       0.12500000000000000        0.0000000000000000     
  0.12500000000000000        0.0000000000000000        0.0000000000000000     
  0.15625000000000000        0.0000000000000000        0.0000000000000000     
  0.18750000000000000        0.0000000000000000        0.0000000000000000     
  0.21875000000000000        0.0000000000000000        0.0000000000000000     
  0.25000000000000000        0.0000000000000000        0.0000000000000000     
  0.12500000000000000        3.1250000000000000E-002   0.0000000000000000     
  0.15625000000000000        3.1250000000000000E-002   0.0000000000000000     
  0.18750000000000000        3.1250000000000000E-002   0.0000000000000000     
  0.21875000000000000        3.1250000000000000E-002   0.0000000000000000     
  0.25000000000000000        3.1250000000000000E-002   0.0000000000000000     
  0.12500000000000000        6.2500000000000000E-002   0.0000000000000000     
  0.15625000000000000        6.2500000000000000E-002   0.0000000000000000     
  0.18750000000000000        6.2500000000000000E-002   0.0000000000000000     
  0.21875000000000000        6.2500000000000000E-002   0.0000000000000000     
  0.25000000000000000        6.2500000000000000E-002   0.0000000000000000     
  0.12500000000000000        9.3750000000000000E-002   0.0000000000000000     
  0.15625000000000000        9.3750000000000000E-002   0.0000000000000000     
  0.18750000000000000        9.3750000000000000E-002   0.0000000000000000     
  0.21875000000000000        9.3750000000000000E-002   0.0000000000000000     
  0.25000000000000000        9.3750000000000000E-002   0.0000000000000000     
  0.12500000000000000       0.12500000000000000        0.0000000000000000     
  0.15625000000000000       0.12500000000000000        0.0000000000000000     
  0.18750000000000000       0.12500000000000000        0.0000000000000000     
  0.21875000000000000       0.12500000000000000        0.0000000000000000     
  0.25000000000000000       0.12500000000000000        0.0000000000000000     
  0.25000000000000000        0.0000000000000000        0.0000000000000000     
  0.28125000000000000        0.0000000000000000        0.0000000000000000     
  0.31250000000000000        0.0000000000000000        0.0000000000000000     
  0.34375000000000000        0.0000000000000000        0.0000000000000000     
  0.37500000000000000        0.0000000000000000        0.0000000000000000     
  0.25000000000000000        3.1250000000000000E-002   0.0000000000000000     
  0.28125000000000000        3.1250000000000000E-002   0.0000000000000000     
  0.31250000000000000        3.1250000000000000E-002   0.0000000000000000     
  0.34375000000000000        3.1250000000000000E-002   0.0000000000000000     
  0.37500000000000000        3.1250000000000000E-002   0.0000000000000000     
  0.25000000000000000        6.2500000000000000E-002   0.0000000000000000     
  0.28125000000000000        6.2500000000000000E-002   0.0000000000000000     
  0.31250000000000000        6.2500000000000000E-002   0.0000000000000000     
  0.34375000000000000        6.2500000000000000E-002   0.0000000000000000     
  0.37500000000000000        6.2500000000000000E-002   0.0000000000000000     
  0.25000000000000000        9.3750000000000000E-002   0.0000000000000000     
  0.28125000000000000        9.3750000000000000E-002   0.0000000000000000     
  0.31250000000000000        9.3750000000000000E-002   0.0000000000000000     
  0.34375000000000000        9.3750000000000000E-002   0.0000000000000000     
  0.37500000000000000        9.3750000000000000E-002   0.0000000000000000     
  0.25000000000000000       0.12500000000000000        0.0000000000000000     
  0.28125000000000000       0.12500000000000000        0.0000000000000000     
  0.31250000000000000       0.12500000000000000        0.0000000000000000     
  0.34375000000000000       0.12500000000000000        0.0000000000000000     
  0.37500000000000000       0.12500000000000000        0.0000000000000000     
  0.37500000000000000        0.0000000000000000        0.0000000000000000     
  0.40625000000000000        0.0000000000000000        0.0000000000000000     
  0.43750000000000000        0.0000000000000000        0.0000000000000000     
  0.46875000000000000        0.0000000000000000        0.0000000000000000     
  0.50000000000000000        0.0000000000000000        0.0000000000000000     
  0.37500000000000000        3.1250000000000000E-002   0.0000000000000000     
  0.40625000000000000        3.1250000000000000E-002   0.0000000000000000     
  0.43750000000000000        3.1250000000000000E-002   0.0000000000000000     
  0.46875000000000000        3.1250000000000000E-002   0.0000000000000000     
  0.50000000000000000        3.1250000000000000E-002   0.0000000000000000     
  0.37500000000000000        6.2500000000000000E-002   0.0000000000000000     
  0.40625000000000000        6.2500000000000000E-002   0.0000000000000000     
  0.43750000000000000        6.2500000000000000E-002   0.0000000000000000     
  0.46875000000000000        6.2500000000000000E-002   0.0000000000000000     
  0.50000000000000000        6.2500000000000000E-002   0.0000000000000000     
  0.37500000000000000        9.3750000000000000E-002   0.0000000000000000     
  0.40625000000000000        9.3750000000000000E-002   0.0000000000000000     
  0.43750000000000000        9.3750000000000000E-002   0.0000000000000000     
  0.46875000000000000        9.3750000000000000E-002   0.0000000000000000     
  0.50000000000000000        9.3750000000000000E-002   0.0000000000000000     
  0.37500000000000000       0.12500000000000000        0.0000000000000000     
  0.40625000000000000       0.12500000000000000        0.0000000000000000     
  0.43750000000000000       0.12500000000000000        0.0000000000000000     
  0.46875000000000000       0.12500000000000000        0.0000000000000000     
  0.50000000000000000       0.12500000000000000        0.0000000000000000     
  0.50000000000000000        0.0000000000000000        0.0000000000000000     
  0.53125000000000000        0.0000000000000000        0.0000000000000000     
  0.56250000000000000        0.0000000000000000        0.0000000000000000     
  0.59375000000000000        0.0000000000000000        0.0000000000000000     
  0.62500000000000000        0.0000000000000000        0.0000000000000000     
  0.50000000000000000        3.1250000000000000E-002   0.0000000000000000     
  0.53125000000000000        3.1250000000000000E-002   0.0000000000000000     
  0.56250000000000000        3.1250000000000000E-002   0.0000000000000000     
  0.59375000000000000        3.1250000000000000E-002   0.0000000000000000     
  0.62500000000000000        3.1250000000000000E-002   0.0000000000000000     
  0.50000000000000000        6.2500000000000000E-002   0.0000000000000000     
  0.53125000000000000        6.2500000000000000E-002   0.0000000000000000     
  0.56250000000000000        6.2500000000000000E-002   0.0000000000000000     
  0.59375000000000000        6.2500000000000000E-002   0.0000000000000000     
  0.62500000000000000        6.2500000000000000E-002   0.0000000000000000     
  0.50000000000000000        9.3750000000000000E-002   0.0000000000000000     
  0.53125000000000000        9.3750000000000000E-002   0.0000000000000000     
  0.56250000000000000        9.3750000000000000E-002   0.0000000000000000     
  0.59375000000000000        9.3750000000000000E-002   0.0000000000000000     
  0.62500000000000000        9.3750000000000000E-002   0.0000000000000000     
  0.50000000000000000       0.12500000000000000        0.0000000000000000     
  0.53125000000000000       0.12500000000000000        0.0000000000000000     
  0.56250000000000000       0.12500000000000000        0.0000000000000000     
[...]
 <PointData>
 <DataArray  type="Float64" Name="disp" NumberOfComponents="3" format="ascii">
   0.0000000000000000        0.0000000000000000        0.0000000000000000     
   5.2000163740283762E-004   1.2648281019317129E-004   0.0000000000000000     
   9.7775657190880025E-004  -2.2895997186252870E-004   0.0000000000000000     
   1.3732648035178880E-003  -1.0663283461670998E-003   0.0000000000000000     
   1.7065263322301009E-003  -2.3856223127205426E-003   0.0000000000000000     
   0.0000000000000000        0.0000000000000000        0.0000000000000000     
   6.1092512059895141E-004  -1.0881670289090371E-004   0.0000000000000000     
   1.3092394940105103E-003  -5.7259524544751763E-004   0.0000000000000000     
   2.0949431202346770E-003  -1.3913356276698413E-003   0.0000000000000000     
   2.9680359992714507E-003  -2.5650378495578759E-003   0.0000000000000000     
   0.0000000000000000        0.0000000000000000        0.0000000000000000     
   7.3806934051777332E-004  -2.8430612713567646E-004   0.0000000000000000     
   1.6387225096332963E-003  -8.5226331219384545E-004   0.0000000000000000     
   2.7019595073465678E-003  -1.7038715551745067E-003   0.0000000000000000     
   3.9277803336575890E-003  -2.8391308560776606E-003   0.0000000000000000     
   0.0000000000000000        0.0000000000000000        0.0000000000000000     
   9.0143429715930368E-004  -3.9998546254114688E-004   0.0000000000000000     
   1.9662056187771571E-003  -1.0679641721015121E-003   0.0000000000000000     
   3.1943139648535615E-003  -2.0039361286810953E-003   0.0000000000000000     
   4.5857593353885147E-003  -3.2079013322798976E-003   0.0000000000000000     
   0.0000000000000000        0.0000000000000000        0.0000000000000000     
   1.1010199905235421E-003  -4.5585470910731497E-004   0.0000000000000000     
   2.2916888214420941E-003  -1.2196978251705177E-003   0.0000000000000000     
   3.5720064927556566E-003  -2.2915293481896078E-003   0.0000000000000000     
   4.9419730044642290E-003  -3.6713492781645859E-003   0.0000000000000000     
   1.7065263322301009E-003  -2.3856223127205426E-003   0.0000000000000000     
   2.2226436770808981E-003  -3.9679795013612025E-003   0.0000000000000000     
   3.1667193571057396E-003  -5.5945375419274258E-003   0.0000000000000000     
   4.5387533723046242E-003  -7.2652964344192134E-003   0.0000000000000000     
   6.3387457226775530E-003  -8.9802561788365626E-003   0.0000000000000000     
   2.9680359992714507E-003  -2.5650378495578759E-003   0.0000000000000000     
   3.9348767227799760E-003  -4.0163503901604501E-003   0.0000000000000000     
   5.0018238824193935E-003  -5.6679217285263983E-003   0.0000000000000000     
   6.1688774781897071E-003  -7.5197518646557167E-003   0.0000000000000000     
   7.4360375100909117E-003  -9.5718407985484043E-003   0.0000000000000000     
   3.9277803336575890E-003  -2.8391308560776606E-003   0.0000000000000000     
   5.1958955675649818E-003  -4.2404059007027572E-003   0.0000000000000000     
   6.3860157880673675E-003  -5.8900613748492456E-003   0.0000000000000000     
   7.4981409951647461E-003  -7.7880972785171268E-003   0.0000000000000000     
   8.5322711888571202E-003  -9.9345136117064015E-003   0.0000000000000000     
   4.5857593353885147E-003  -3.2079013322798976E-003   0.0000000000000000     
   6.0057002114359166E-003  -4.6401460329881204E-003   0.0000000000000000     
   7.3192950740496605E-003  -6.2609564808959704E-003   0.0000000000000000     
   8.5265439232297489E-003  -8.0703326760034472E-003   0.0000000000000000     
   9.6274467589761784E-003  -1.0068274618310545E-002   0.0000000000000000     
   4.9419730044642290E-003  -3.6713492781645859E-003   0.0000000000000000     
   6.3642906543927777E-003  -5.2155707870165432E-003   0.0000000000000000     
   7.8016617403662697E-003  -6.7806070466665726E-003   0.0000000000000000     
   9.2540862623847059E-003  -8.3664580571146726E-003   0.0000000000000000     
   1.0721564220448085E-002  -9.9731238183608448E-003   0.0000000000000000     
   6.3387457226775530E-003  -8.9802561788365626E-003   0.0000000000000000     
   8.3151555306260529E-003  -1.0723591750115734E-002   0.0000000000000000     
   1.0216441918551646E-002  -1.2479478123192984E-002   0.0000000000000000     
   1.2042604886454335E-002  -1.4247915298068313E-002   0.0000000000000000     
   1.3793644434334121E-002  -1.6028903274741720E-002   0.0000000000000000     
   7.4360375100909117E-003  -9.5718407985484043E-003   0.0000000000000000     
   8.9297425932009199E-003  -1.1626628347272471E-002   0.0000000000000000     
   1.0776431342597648E-002  -1.3486554327895918E-002   0.0000000000000000     
   1.2976103758281088E-002  -1.5151618740418739E-002   0.0000000000000000     
   1.5528759840251243E-002  -1.6621821584840945E-002   0.0000000000000000     
   8.5322711888571202E-003  -9.9345136117064015E-003   0.0000000000000000     
   9.7799515224742742E-003  -1.2115242692739760E-002   0.0000000000000000     
   1.1532727149345990E-002  -1.4116216839939889E-002   0.0000000000000000     
   1.3790598069472271E-002  -1.5937436053306792E-002   0.0000000000000000     
   1.6553564282853119E-002  -1.7578900332840475E-002   0.0000000000000000     
   9.6274467589761784E-003  -1.0068274618310545E-002   0.0000000000000000     
   1.0865782318446104E-002  -1.2189434786517593E-002   0.0000000000000000     
   1.2485329338796669E-002  -1.4368465659324902E-002   0.0000000000000000     
   1.4486087820027886E-002  -1.6605367236732473E-002   0.0000000000000000     
   1.6868057762139742E-002  -1.8900139518740311E-002   0.0000000000000000     
   1.0721564220448085E-002  -9.9731238183608448E-003   0.0000000000000000     
   1.2187234981116412E-002  -1.1849204628605977E-002   0.0000000000000000     
   1.3634237910949695E-002  -1.4243300786050954E-002   0.0000000000000000     
   1.5062573009947931E-002  -1.7155412290695782E-002   0.0000000000000000     
   1.6472240278111120E-002  -2.0585539142540452E-002   0.0000000000000000     
   1.3793644434334121E-002  -1.6028903274741720E-002   0.0000000000000000     
   1.5867153607158745E-002  -1.7590890819482289E-002   0.0000000000000000     
   1.8660725449895950E-002  -1.8702326698559105E-002   0.0000000000000000     
   2.2174359962545735E-002  -1.9363210911972163E-002   0.0000000000000000     
   2.6408057145108101E-002  -1.9573543459721471E-002   0.0000000000000000     
   1.5528759840251243E-002  -1.6621821584840945E-002   0.0000000000000000     
   1.8224571253572911E-002  -1.7862136159033599E-002   0.0000000000000000     
   2.0853709663310890E-002  -1.8837535760867778E-002   0.0000000000000000     
   2.3416175069465174E-002  -1.9548020390343476E-002   0.0000000000000000     
   2.5911967472035766E-002  -1.9993590047460690E-002   0.0000000000000000     
   1.6553564282853119E-002  -1.7578900332840475E-002   0.0000000000000000     
   1.9406600680671515E-002  -1.8925424136264805E-002   0.0000000000000000     
   2.1934682154110461E-002  -1.9861821921303657E-002   0.0000000000000000     
   2.4137808703169936E-002  -2.0388093687957038E-002   0.0000000000000000     
   2.6015980327849957E-002  -2.0504239436224952E-002   0.0000000000000000     
   1.6868057762139742E-002  -1.8900139518740311E-002   0.0000000000000000     
   1.9413241888454568E-002  -2.0780754751175908E-002   0.0000000000000000     
   2.1903642922294655E-002  -2.1775185179866759E-002   0.0000000000000000     
   2.4339260863660027E-002  -2.1883430804812882E-002   0.0000000000000000     
   2.6720095712550664E-002  -2.1105491626014248E-002   0.0000000000000000     
   1.6472240278111120E-002  -2.0585539142540452E-002   0.0000000000000000     
   1.8244494876922045E-002  -2.3428128003766906E-002   0.0000000000000000     
   2.0760591967863486E-002  -2.4577625536557079E-002   0.0000000000000000     
   2.4020531550935430E-002  -2.4034031740910972E-002   0.0000000000000000     
   2.8024313626137897E-002  -2.1797346616828590E-002   0.0000000000000000     
   2.6408057145108101E-002  -1.9573543459721471E-002   0.0000000000000000     
   3.0546440812476892E-002  -1.9278662786819441E-002   0.0000000000000000     
   3.3774134779545953E-002  -1.8423907338278492E-002   0.0000000000000000     
   3.6091139046315286E-002  -1.7009277114098623E-002   0.0000000000000000     
   3.7497453612784885E-002  -1.5034772114279837E-002   0.0000000000000000     
   2.5911967472035766E-002  -1.9993590047460690E-002   0.0000000000000000     
   2.8218414417601732E-002  -1.9990234288131872E-002   0.0000000000000000     
   3.0212843452742118E-002  -1.9353942668269460E-002   0.0000000000000000     
   3.1895254577456927E-002  -1.8084715187873454E-002   0.0000000000000000     
   3.3265647791746157E-002  -1.6182551846943852E-002   0.0000000000000000     
   2.6015980327849957E-002  -2.0504239436224952E-002   0.0000000000000000     
   2.7705396414100077E-002  -2.0217897398209485E-002   0.0000000000000000     
   2.9342256347869865E-002  -1.9536705806012754E-002   0.0000000000000000     
   3.0926560129159317E-002  -1.8460664659634758E-002   0.0000000000000000     
   3.2458307757968423E-002  -1.6989773959075496E-002   0.0000000000000000     
   2.6720095712550664E-002  -2.1105491626014248E-002   0.0000000000000000     
   2.9007386801971943E-002  -1.9961652117052284E-002   0.0000000000000000     
   3.1162373464929199E-002  -1.8972196751508377E-002   0.0000000000000000     
   3.3185055701422453E-002  -1.8137125529382542E-002   0.0000000000000000     
   3.5075433511451683E-002  -1.7456438450674773E-002   0.0000000000000000     
   2.8024313626137897E-002  -2.1797346616828590E-002   0.0000000000000000     
   3.2124385581217309E-002  -1.9221498444660260E-002   0.0000000000000000     
   3.5673194803920116E-002  -1.7660415504756333E-002   0.0000000000000000     
   3.8670741294246330E-002  -1.7114097797116805E-002   0.0000000000000000     
   4.1117025052195923E-002  -1.7582545321741680E-002   0.0000000000000000     
   3.7497453612784885E-002  -1.5034772114279837E-002   0.0000000000000000     
   3.8155169142627031E-002  -1.3115071777007296E-002   0.0000000000000000     
   3.8226376299514003E-002  -1.1864855540466162E-002   0.0000000000000000     
   3.7711075083445803E-002  -1.1284123404656442E-002   0.0000000000000000     
   3.6609265494422429E-002  -1.1372875369578130E-002   0.0000000000000000     
   3.3265647791746157E-002  -1.6182551846943852E-002   0.0000000000000000     
   3.4419971658506653E-002  -1.4263337132748344E-002   0.0000000000000000     
   3.5454174740635218E-002  -1.2942955532554631E-002   0.0000000000000000     
   3.6368257038131867E-002  -1.2221407046362707E-002   0.0000000000000000     
   3.7162218550996606E-002  -1.2098691674172575E-002   0.0000000000000000     
   3.2458307757968423E-002  -1.6989773959075496E-002   0.0000000000000000     
   3.3965495538270871E-002  -1.5488456853910489E-002   0.0000000000000000     
   3.5476119774040325E-002  -1.4321136493715268E-002   0.0000000000000000     
   3.6990180465276787E-002  -1.3487812878489833E-002   0.0000000000000000     
   3.8507677611980248E-002  -1.2988486008234181E-002   0.0000000000000000     
   3.5075433511451683E-002  -1.7456438450674773E-002   0.0000000000000000     
   3.6791740781919706E-002  -1.6790430940493730E-002   0.0000000000000000     
   3.8292211399729326E-002  -1.5999398423948073E-002   0.0000000000000000     
   3.9576845364880556E-002  -1.5083340901037814E-002   0.0000000000000000     
   4.0645642677373368E-002  -1.4042258371762944E-002   0.0000000000000000     
   4.1117025052195923E-002  -1.7582545321741680E-002   0.0000000000000000     
   4.2898707389453151E-002  -1.8169259392498062E-002   0.0000000000000000     
   4.3902449617702233E-002  -1.7977741323253051E-002   0.0000000000000000     
   4.4128251736943173E-002  -1.7007991114006651E-002   0.0000000000000000     
   4.3576113747175960E-002  -1.5260008764758866E-002   0.0000000000000000     
   3.6609265494422429E-002  -1.1372875369578130E-002   0.0000000000000000     
   3.5815292810681132E-002  -1.2144767537424562E-002   0.0000000000000000     
   3.6223502310459156E-002  -1.3613456010389078E-002   0.0000000000000000     
   3.7833893993756522E-002  -1.5778940788471679E-002   0.0000000000000000     
   4.0646467860573209E-002  -1.8641221871672359E-002   0.0000000000000000     
   3.7162218550996606E-002  -1.2098691674172575E-002   0.0000000000000000     
   3.8046052115652672E-002  -1.2708411557221896E-002   0.0000000000000000     
   3.9229750568523319E-002  -1.4184168836748334E-002   0.0000000000000000     
   4.0713313909608556E-002  -1.6525963512751884E-002   0.0000000000000000     
   4.2496742138908375E-002  -1.9733795585232552E-002   0.0000000000000000     
   3.8507677611980248E-002  -1.2988486008234181E-002   0.0000000000000000     
   3.9961911470550115E-002  -1.3203307141812927E-002   0.0000000000000000     
   4.1286182297385753E-002  -1.4512427538090669E-002   0.0000000000000000     
   4.2480490092487173E-002  -1.6915847197067416E-002   0.0000000000000000     
   4.3544834855854371E-002  -2.0413566118743166E-002   0.0000000000000000     
   4.0645642677373368E-002  -1.4042258371762944E-002   0.0000000000000000     
   4.1562870875373449E-002  -1.3629454291197643E-002   0.0000000000000000     
   4.2392797497046442E-002  -1.4598232114416085E-002   0.0000000000000000     
   4.3135422542392353E-002  -1.6948591841418267E-002   0.0000000000000000     
   4.3790746011411190E-002  -2.0680533472204200E-002   0.0000000000000000     
   4.3576113747175960E-002  -1.5260008764758866E-002   0.0000000000000000     
   4.2848930330122686E-002  -1.3986853005376054E-002   0.0000000000000000     
   4.2549596167505400E-002  -1.4441582565724581E-002   0.0000000000000000     
   4.2678111259324122E-002  -1.6624197445804449E-002   0.0000000000000000     
   4.3234475605578838E-002  -2.0534697645615659E-002   0.0000000000000000     
   4.0646467860573209E-002  -1.8641221871672359E-002   0.0000000000000000     
   4.3391439972372388E-002  -2.1249706635239649E-002   0.0000000000000000     
   4.4799026390617211E-002  -2.2653802454422091E-002   0.0000000000000000     
   4.4869227115307685E-002  -2.2853509329219670E-002   0.0000000000000000     
   4.3602042146443802E-002  -2.1848827259632397E-002   0.0000000000000000     
   4.2496742138908375E-002  -1.9733795585232552E-002   0.0000000000000000     
   4.4297597182934016E-002  -2.2233637641956207E-002   0.0000000000000000     
   4.5833440968196727E-002  -2.2451462270688713E-002   0.0000000000000000     
   4.7104273494696494E-002  -2.0387269471430079E-002   0.0000000000000000     
   4.8110094762433331E-002  -1.6041059244180294E-002   0.0000000000000000     
   4.3544834855854371E-002  -2.0413566118743166E-002   0.0000000000000000     
   4.4651712539041051E-002  -2.3117077460489813E-002   0.0000000000000000     
   4.5973619093600933E-002  -2.3137874379679232E-002   0.0000000000000000     
   4.7510554519533982E-002  -2.0475956876311437E-002   0.0000000000000000     
   4.9262518816840246E-002  -1.5131324950386424E-002   0.0000000000000000     
   4.3790746011411190E-002  -2.0680533472204200E-002   0.0000000000000000     
   4.4453786040693506E-002  -2.3900026090840465E-002   0.0000000000000000     
   4.5219560766829821E-002  -2.4713038781393651E-002   0.0000000000000000     
   4.6088070189820161E-002  -2.3119571543863751E-002   0.0000000000000000     
   4.7059314309664535E-002  -1.9119624378250780E-002   0.0000000000000000     
   4.3234475605578838E-002  -2.0534697645615659E-002   0.0000000000000000     
   4.3703817687891333E-002  -2.4582483533008175E-002   0.0000000000000000     
   4.3571265987883398E-002  -2.7176955475831956E-002   0.0000000000000000     
   4.2836820505555019E-002  -2.8318113474087026E-002   0.0000000000000000     
   4.1500481240906210E-002  -2.8005957527773365E-002   0.0000000000000000     
   0.0000000000000000        0.0000000000000000        0.0000000000000000     
   1.1010199905235421E-003  -4.5585470910731497E-004   0.0000000000000000     
   2.2916888214420941E-003  -1.2196978251705177E-003   0.0000000000000000     
   3.5720064927556566E-003  -2.2915293481896078E-003   0.0000000000000000     
   4.9419730044642290E-003  -3.6713492781645859E-003   0.0000000000000000     
   0.0000000000000000        0.0000000000000000        0.0000000000000000     
   1.2989937584292235E-003  -5.0384991183054760E-004   0.0000000000000000     
   2.5951378724492222E-003  -1.3571637638220074E-003   0.0000000000000000     
   3.8884323420599947E-003  -2.5599415559743799E-003   0.0000000000000000     
   5.1788771672615433E-003  -4.1121832882876647E-003   0.0000000000000000     
   0.0000000000000000        0.0000000000000000        0.0000000000000000     
   1.4575229386950823E-003  -5.9590711570721184E-004   0.0000000000000000     
   2.8565185266196556E-003  -1.5300614804771278E-003   0.0000000000000000     
   4.1969867637737194E-003  -2.8024630943097482E-003   0.0000000000000000     
   5.4789276501572724E-003  -4.4131119572050730E-003   0.0000000000000000     
   0.0000000000000000        0.0000000000000000        0.0000000000000000     
   1.5766075313211187E-003  -7.3202632073730736E-004   0.0000000000000000     
   3.0758307839533947E-003  -1.7383909751358781E-003   0.0000000000000000     
   4.4976697578968262E-003  -3.0190939631957129E-003   0.0000000000000000     
   5.8421244531514146E-003  -4.5741352849168106E-003   0.0000000000000000     
   0.0000000000000000        0.0000000000000000        0.0000000000000000     
   1.6562475363073332E-003  -9.1220752692083439E-004   0.0000000000000000     
   3.2530746444504395E-003  -1.9821522477982585E-003   0.0000000000000000     
   4.7904813244293194E-003  -3.2098341626322731E-003   0.0000000000000000     
   6.2684675762439725E-003  -4.5952532714228769E-003   0.0000000000000000     
   4.9419730044642290E-003  -3.6713492781645859E-003   0.0000000000000000     
   6.3642906543927777E-003  -5.2155707870165432E-003   0.0000000000000000     
   7.8016617403662697E-003  -6.7806070466665726E-003   0.0000000000000000     
   9.2540862623847059E-003  -8.3664580571146726E-003   0.0000000000000000     
   1.0721564220448085E-002  -9.9731238183608448E-003   0.0000000000000000     
   5.1788771672615433E-003  -4.1121832882876647E-003   0.0000000000000000     
   6.5543895328372126E-003  -5.7718464341328596E-003   0.0000000000000000     
   8.1028866235703483E-003  -7.2968884668809597E-003   0.0000000000000000     
   9.8243684394609468E-003  -8.6873093865319703E-003   0.0000000000000000     
   1.1718834980509012E-002  -9.9431091930858827E-003   0.0000000000000000     
   5.4789276501572724E-003  -4.4131119572050730E-003   0.0000000000000000     
   6.8587194831708628E-003  -6.1141392456819047E-003   0.0000000000000000     
   8.4927405602150362E-003  -7.6576761362590444E-003   0.0000000000000000     
   1.0380990881289789E-002  -9.0437226289364920E-003   0.0000000000000000     
   1.2523470446395124E-002  -1.0272278723714249E-002   0.0000000000000000     
   5.8421244531514146E-003  -4.5741352849168106E-003   0.0000000000000000     
   7.2772805053937274E-003  -6.2424492216636785E-003   0.0000000000000000     
   8.9712235503003335E-003  -7.8629700548008240E-003   0.0000000000000000     
   1.0923953587871234E-002  -9.4356977843282463E-003   0.0000000000000000     
   1.3135470618106427E-002  -1.0960632410245945E-002   0.0000000000000000     
   6.2684675762439725E-003  -4.5952532714228769E-003   0.0000000000000000     
   7.8100725995058108E-003  -6.1567763620781826E-003   0.0000000000000000     
   9.5383355938262488E-003  -7.9127702225062994E-003   0.0000000000000000     
   1.1453256559205283E-002  -9.8632348527072262E-003   0.0000000000000000     
   1.3554835495642917E-002  -1.2008170252680967E-002   0.0000000000000000     
   1.0721564220448085E-002  -9.9731238183608448E-003   0.0000000000000000     
   1.2187234981116412E-002  -1.1849204628605977E-002   0.0000000000000000     