 <VTKFile type="UnstructuredGrid"  version="0.1"   >
 <UnstructuredGrid>
 <Piece  NumberOfPoints="          1600 "  NumberOfCells="         1024 ">
 <Points>
 <DataArray  type="Float64" NumberOfComponents="3"  format="ascii" >
   0.0000000000000000        0.0000000000000000        0.0000000000000000     
   3.1250000000000000E-002   0.0000000000000000        0.0000000000000000     
   6.2500000000000000E-002   0.0000000000000000        0.0000000000000000     
   9.3750000000000000E-002   0.0000000000000000        0.0000000000000000     
  0.12500000000000000        0.0000000000000000        0.0000000000000000     
   0.0000000000000000        3.1250000000000000E-002   0.0000000000000000     
   3.1250000000000000E-002   3.1250000000000000E-002   0.0000000000000000     
   6.2500000000000000E-002   3.1250000000000000E-002   0.0000000000000000     
   9.3750000000000000E-002   3.1250000000000000E-002   0.0000000000000000     
  0.12500000000000000        3.1250000000000000E-002   0.0000000000000000     
   0.0000000000000000        6.2500000000000000E-002   0.0000000000000000     
   3.1250000000000000E-002   6.2500000000000000E-002   0.0000000000000000     
   6.2500000000000000E-002   6.2500000000000000E-002   0.0000000000000000     
   9.3750000000000000E-002   6.2500000000000000E-002   0.0000000000000000     
  0.12500000000000000        6.2500000000000000E-002   0.0000000000000000     
   0.0000000000000000        9.3750000000000000E-002   0.0000000000000000     
   3.1250000000000000E-002   9.3750000000000000E-002   0.0000000000000000     
   6.2500000000000000E-002   9.3750000000000000E-002   0.0000000000000000     
   9.3750000000000000E-002   9.3750000000000000E-002   0.0000000000000000     
  0.12500000000000000        9.3750000000000000E-002   0.0000000000000000     
   0.0000000000000000       0.12500000000000000        0.0000000000000000     
   3.1250000000000000E-002  0.12500000000000000        0.0000000000000000     
   6.2500000000000000E-002  0.12500000000000000        0.0000000000000000     
   9.3750000000000000E-002  0.12500000000000000        0.0000000000000000     
  0.12500000000000000       0.12500000000000000        0.0000000000000000     
  0.12500000000000000        0.0000000000000000        0.0000000000000000     
  0.15625000000000000        0.0000000000000000        0.0000000000000000     
  0.18750000000000000        0.0000000000000000        0.0000000000000000     
  0.21875000000000000        0.0000000000000000        0.0000000000000000     
  0.25000000000000000        0.0000000000000000        0.0000000000000000     
  0.12500000000000000        3.1250000000000000E-002   0.0000000000000000     
  0.15625000000000000        3.1250000000000000E-002   0.0000000000000000     
  0.18750000000000000        3.1250000000000000E-002   0.0000000000000000     
  0.21875000000000000        3.1250000000000000E-002   0.0000000000000000     
  0.25000000000000000        3.1250000000000000E-002   0.0000000000000000     
  0.12500000000000000        6.2500000000000000E-002   0.0000000000000000     
  0.15625000000000000        6.2500000000000000E-002   0.0000000000000000     
  0.18750000000000000        6.2500000000000000E-002   0.0000000000000000     
  0.21875000000000000        6.2500000000000000E-002   0.0000000000000000     
  0.25000000000000000        6.2500000000000000E-002   0.0000000000000000     
  0.12500000000000000        9.3750000000000000E-002   0.0000000000000000     
  0.15625000000000000        9.3750000000000000E-002   0.0000000000000000     
  0.18750000000000000        9.3750000000000000E-002   0.0000000000000000     
  0.21875000000000000        9.3750000000000000E-002   0.0000000000000000     
  0.25000000000000000        9.3750000000000000E-002   0.0000000000000000     
  0.12500000000000000       0.12500000000000000        0.0000000000000000     
  0.15625000000000000       0.12500000000000000        0.0000000000000000     
  0.18750000000000000       0.12500000000000000        0.0000000000000000     
  0.21875000000000000       0.12500000000000000        0.0000000000000000     
  0.25000000000000000       0.12500000000000000        0.0000000000000000     
  0.25000000000000000        0.0000000000000000        0.0000000000000000     
  0.28125000000000000        0.0000000000000000        0.0000000000000000     
  0.31250000000000000        0.0000000000000000        0.0000000000000000     
  0.34375000000000000        0.0000000000000000        0.0000000000000000     
  0.37500000000000000        0.0000000000000000        0.0000000000000000     
  0.25000000000000000        3.1250000000000000E-002   0.0000000000000000     
  0.28125000000000000        3.1250000000000000E-002   0.0000000000000000     
  0.31250000000000000        3.1250000000000000E-002   0.0000000000000000     
  0.34375000000000000        3.1250000000000000E-002   0.0000000000000000     
  0.37500000000000000        3.1250000000000000E-002   0.0000000000000000     
  0.25000000000000000        6.2500000000000000E-002   0.0000000000000000     
  0.28125000000000000        6.2500000000000000E-002   0.0000000000000000     
  0.31250000000000000        6.2500000000000000E-002   0.0000000000000000     
  0.34375000000000000        6.2500000000000000E-002   0.0000000000000000     
  0.37500000000000000        6.2500000000000000E-002   0.0000000000000000     
  0.25000000000000000        9.3750000000000000E-002   0.0000000000000000     
  0.28125000000000000        9.3750000000000000E-002   0.0000000000000000     
  0.31250000000000000        9.3750000000000000E-002   0.0000000000000000     
  0.34375000000000000        9.3750000000000000E-002   0.0000000000000000     
  0.37500000000000000        9.3750000000000000E-002   0.0000000000000000     
  0.25000000000000000       0.12500000000000000        0.0000000000000000     
  0.28125000000000000       0.12500000000000000        0.0000000000000000     
  0.31250000000000000       0.12500000000000000        0.0000000000000000     
  0.34375000000000000       0.12500000000000000        0.0000000000000000     
  0.37500000000000000       0.12500000000000000        0.0000000000000000     
  0.37500000000000000        0.0000000000000000        0.0000000000000000     
  0.40625000000000000        0.0000000000000000        0.0000000000000000     
  0.43750000000000000        0.0000000000000000        0.0000000000000000     
  0.46875000000000000        0.0000000000000000        0.0000000000000000     
  0.50000000000000000        0.0000000000000000        0.0000000000000000     
  0.37500000000000000        3.1250000000000000E-002   0.0000000000000000     
  0.40625000000000000        3.1250000000000000E-002   0.0000000000000000     
  0.43750000000000000        3.1250000000000000E-002   0.0000000000000000     
  0.46875000000000000        3.1250000000000000E-002   0.0000000000000000     
  0.50000000000000000        3.1250000000000000E-002   0.0000000000000000     
  0.37500000000000000        6.2500000000000000E-002   0.0000000000000000     
  0.40625000000000000        6.2500000000000000E-002   0.0000000000000000     
  0.43750000000000000        6.2500000000000000E-002   0.0000000000000000     
  0.46875000000000000        6.2500000000000000E-002   0.0000000000000000     
  0.50000000000000000        6.2500000000000000E-002   0.0000000000000000     
  0.37500000000000000        9.3750000000000000E-002   0.0000000000000000     
  0.40625000000000000        9.3750000000000000E-002   0.0000000000000000     
  0.43750000000000000        9.3750000000000000E-002   0.0000000000000000     
  0.46875000000000000        9.3750000000000000E-002   0.0000000000000000     
  0.50000000000000000        9.3750000000000000E-002   0.0000000000000000     
  0.37500000000000000       0.12500000000000000        0.0000000000000000     
  0.40625000000000000       0.12500000000000000        0.0000000000000000     
  0.43750000000000000       0.12500000000000000        0.0000000000000000     
  0.46875000000000000       0.12500000000000000        0.0000000000000000     
  0.50000000000000000       0.12500000000000000        0.0000000000000000     
  0.50000000000000000        0.0000000000000000        0.0000000000000000     
  0.53125000000000000        0.0000000000000000        0.0000000000000000     
  0.56250000000000000        0.0000000000000000        0.0000000000000000     
  0.59375000000000000        0.0000000000000000        0.0000000000000000     
  0.62500000000000000        0.0000000000000000        0.0000000000000000     
  0.50000000000000000        3.1250000000000000E-002   0.0000000000000000     
  0.53125000000000000        3.1250000000000000E-002   0.0000000000000000     
  0.56250000000000000        3.1250000000000000E-002   0.0000000000000000     
  0.59375000000000000        3.1250000000000000E-002   0.0000000000000000     
  0.62500000000000000        3.1250000000000000E-002   0.0000000000000000     
  0.50000000000000000        6.2500000000000000E-002   0.0000000000000000     
  0.53125000000000000        6.2500000000000000E-002   0.0000000000000000     
  0.56250000000000000        6.2500000000000000E-002   0.0000000000000000     
  0.59375000000000000        6.2500000000000000E-002   0.0000000000000000     
  0.62500000000000000        6.2500000000000000E-002   0.0000000000000000     
  0.50000000000000000        9.3750000000000000E-002   0.0000000000000000     
  0.53125000000000000        9.3750000000000000E-002   0.0000000000000000     
  0.56250000000000000        9.3750000000000000E-002   0.0000000000000000     
  0.59375000000000000        9.3750000000000000E-002   0.0000000000000000     
  0.62500000000000000        9.3750000000000000E-002   0.0000000000000000     
  0.50000000000000000       0.12500000000000000        0.0000000000000000     
  0.53125000000000000       0.12500000000000000        0.0000000000000000     
  0.56250000000000000       0.12500000000000000        0.0000000000000000     
[...]
 <PointData>
 <DataArray  type="Float64" Name="disp" NumberOfComponents="3" format="ascii">
   0.0000000000000000        0.0000000000000000        0.0000000000000000     
   6.0952836364236221E-003   3.7916061808759938E-003   0.0000000000000000     
   1.1665527147991135E-002   7.3250027052073514E-003   0.0000000000000000     
   1.6710730534702536E-002   1.0600189572994072E-002   0.0000000000000000     
   2.1230893796557827E-002   1.3617166784236159E-002   0.0000000000000000     
   0.0000000000000000        0.0000000000000000        0.0000000000000000     
   4.8910344483248137E-003   3.0224521014785653E-003   0.0000000000000000     
   9.5738289946251005E-003   6.0606816586876661E-003   0.0000000000000000     
   1.4048383638900860E-002   9.1146886716273016E-003   0.0000000000000000     
   1.8314698381152093E-002   1.2184473140297471E-002   0.0000000000000000     
   0.0000000000000000        0.0000000000000000        0.0000000000000000     
   3.9537708318637737E-003   2.4248125975022969E-003   0.0000000000000000     
   7.9111696516182949E-003   5.0623521201318437E-003   0.0000000000000000     
   1.1872196459263564E-002   7.9126185678886404E-003   0.0000000000000000     
   1.5836851254799583E-002   1.0975611940772689E-002   0.0000000000000000     
   0.0000000000000000        0.0000000000000000        0.0000000000000000     
   3.2834927870405003E-003   1.9986876689471879E-003   0.0000000000000000     
   6.6775491189707166E-003   4.3300140895398851E-003   0.0000000000000000     
   1.0182168995790648E-002   6.9939792617780914E-003   0.0000000000000000     
   1.3797352417500294E-002   9.9905831856618062E-003   0.0000000000000000     
   0.0000000000000000        0.0000000000000000        0.0000000000000000     
   2.8802003138549944E-003   1.7440773158132385E-003   0.0000000000000000     
   5.8729673966823638E-003   3.8636675669117891E-003   0.0000000000000000     
   8.9783012484821074E-003   6.3587707532956521E-003   0.0000000000000000     
   1.2196201869254230E-002   9.2293868749648254E-003   0.0000000000000000     
   2.1230893796557827E-002   1.3617166784236159E-002   0.0000000000000000     
   2.5437455048785224E-002   1.6608312801860960E-002   0.0000000000000000     
   2.9541852406612942E-002   1.9806006088795829E-002   0.0000000000000000     
   3.3544085870040978E-002   2.3210246645040771E-002   0.0000000000000000     
   3.7444155439069336E-002   2.6821034470595778E-002   0.0000000000000000     
   1.8314698381152093E-002   1.2184473140297471E-002   0.0000000000000000     
   2.2410079904556131E-002   1.5339171553708677E-002   0.0000000000000000     
   2.6371834892290315E-002   1.8647920400871418E-002   0.0000000000000000     
   3.0199963344354635E-002   2.2110719681785691E-002   0.0000000000000000     
   3.3894465260749095E-002   2.5727569396451502E-002   0.0000000000000000     
   1.5836851254799583E-002   1.0975611940772689E-002   0.0000000000000000     
   1.9732803232805445E-002   1.4210174596878965E-002   0.0000000000000000     
   2.3487721587860243E-002   1.7575148894302464E-002   0.0000000000000000     
   2.7101606319963986E-002   2.1070534833043181E-002   0.0000000000000000     
   3.0574457429116665E-002   2.4696332413101110E-002   0.0000000000000000     
   1.3797352417500294E-002   9.9905831856618062E-003   0.0000000000000000     
   1.7405625033533156E-002   1.3221321931371832E-002   0.0000000000000000     
   2.0889512493322732E-002   1.6587691569088975E-002   0.0000000000000000     
   2.4249014796869035E-002   2.0089692098813231E-002   0.0000000000000000     
   2.7484131944172048E-002   2.3727323520544595E-002   0.0000000000000000     
   1.2196201869254230E-002   9.2293868749648254E-003   0.0000000000000000     
   1.5428545306739273E-002   1.2372613557187271E-002   0.0000000000000000     
   1.8577207608677791E-002   1.5685548425230941E-002   0.0000000000000000     
   2.1642188775069782E-002   1.9168191479095840E-002   0.0000000000000000     
   2.4623488805915243E-002   2.2820542718781971E-002   0.0000000000000000     
   3.7444155439069336E-002   2.6821034470595778E-002   0.0000000000000000     
   4.1250793067106481E-002   3.0630465679501413E-002   0.0000000000000000     
   4.4972730707560901E-002   3.4630636385798233E-002   0.0000000000000000     
   4.8609968360432590E-002   3.8821546589486236E-002   0.0000000000000000     
   5.2162506025721561E-002   4.3203196290565432E-002   0.0000000000000000     
   3.3894465260749095E-002   2.5727569396451502E-002   0.0000000000000000     
   3.7482196246586906E-002   2.9525853213274920E-002   0.0000000000000000     
   4.0990011906981288E-002   3.3532954800662020E-002   0.0000000000000000     
   4.4417912241932228E-002   3.7748874158612805E-002   0.0000000000000000     
   4.7765897251439732E-002   4.2173611287127252E-002   0.0000000000000000     
   3.0574457429116665E-002   2.4696332413101110E-002   0.0000000000000000     
   3.3938822213047018E-002   2.8497167481021293E-002   0.0000000000000000     
   3.7227247969483762E-002   3.2517665883348763E-002   0.0000000000000000     
   4.0439734698426925E-002   3.6757827620083519E-002   0.0000000000000000     
   4.3576282399876473E-002   4.1217652691225570E-002   0.0000000000000000     
   2.7484131944172048E-002   2.3727323520544595E-002   0.0000000000000000     
   3.0620670966486813E-002   2.7544408482740531E-002   0.0000000000000000     
   3.3684438895068364E-002   3.1584769633858471E-002   0.0000000000000000     
   3.6675435729916675E-002   3.5848406973898420E-002   0.0000000000000000     
   3.9593661471031785E-002   4.0335320502860372E-002   0.0000000000000000     
   2.4623488805915243E-002   2.2820542718781971E-002   0.0000000000000000     
   2.7527742506906299E-002   2.6667576218432631E-002   0.0000000000000000     
   3.0361584683735048E-002   3.0734266052191133E-002   0.0000000000000000     
   3.3125015336401512E-002   3.5020612220057479E-002   0.0000000000000000     
   3.5818034464905668E-002   3.9526614722031665E-002   0.0000000000000000     
   5.2162506025721561E-002   4.3203196290565432E-002   0.0000000000000000     
   5.5612404078052610E-002   4.7784282290688859E-002   0.0000000000000000     
   5.8941722892050567E-002   5.2573501391509549E-002   0.0000000000000000     
   6.2150462467715439E-002   5.7570853593027507E-002   0.0000000000000000     
   6.5238622805047206E-002   6.2776338895242742E-002   0.0000000000000000     
   4.7765897251439732E-002   4.2173611287127252E-002   0.0000000000000000     
   5.1015045868586642E-002   4.6802072911592385E-002   0.0000000000000000     
   5.4146437026455808E-002   5.1629165757395193E-002   0.0000000000000000     
   5.7160070725047231E-002   5.6654889824535648E-002   0.0000000000000000     
   6.0055946964360910E-002   6.1879245113013764E-002   0.0000000000000000     
   4.3576282399876473E-002   4.1217652691225570E-002   0.0000000000000000     
   4.6618655205515037E-002   4.5883370011815951E-002   0.0000000000000000     
   4.9548617247025216E-002   5.0741208496895715E-002   0.0000000000000000     
   5.2366168524407022E-002   5.5791168146464863E-002   0.0000000000000000     
   5.5071309037660457E-002   6.1033248960523388E-002   0.0000000000000000     
   3.9593661471031785E-002   4.0335320502860372E-002   0.0000000000000000     
   4.2423232088837776E-002   4.5028173591359549E-002   0.0000000000000000     
   4.5148263553758783E-002   4.9909629610011129E-002   0.0000000000000000     
   4.7768755865794800E-002   5.4979688558815153E-002   0.0000000000000000     
   5.0284709024945834E-002   6.0238350437771593E-002   0.0000000000000000     
   3.5818034464905668E-002   3.9526614722031665E-002   0.0000000000000000     
   3.8428776518554884E-002   4.4236483650223160E-002   0.0000000000000000     
   4.0945375946656523E-002   4.9134429096741448E-002   0.0000000000000000     
   4.3367832749210578E-002   5.4220451061586530E-002   0.0000000000000000     
   4.5696146926217054E-002   5.9494549544758399E-002   0.0000000000000000     
   6.5238622805047206E-002   6.2776338895242742E-002   0.0000000000000000     
   6.8249202809127191E-002   6.8182669713289012E-002   0.0000000000000000     
   7.1225201385036671E-002   7.3782558462300099E-002   0.0000000000000000     
   7.4166618532775674E-002   7.9576005142275988E-002   0.0000000000000000     
   7.7073454252344159E-002   8.5563009753216679E-002   0.0000000000000000     
   6.0055946964360910E-002   6.1879245113013764E-002   0.0000000000000000     
   6.2877274287659296E-002   6.7299758653749819E-002   0.0000000000000000     
   6.5667261238204835E-002   7.2913957477664049E-002   0.0000000000000000     
   6.8425907815997528E-002   7.8721841584756466E-002   0.0000000000000000     
   7.1153214021037386E-002   8.4723410975027086E-002   0.0000000000000000     
   5.5071309037660457E-002   6.1033248960523388E-002   0.0000000000000000     
   5.7705705017105376E-002   6.6469052289940891E-002   0.0000000000000000     
   6.0311022693061683E-002   7.2100179485586988E-002   0.0000000000000000     
   6.2887262065529373E-002   7.7926630547461670E-002   0.0000000000000000     
   6.5434423134508424E-002   8.3948405475564911E-002   0.0000000000000000     
   5.0284709024945834E-002   6.0238350437771593E-002   0.0000000000000000     
   5.2734494997465457E-002   6.5690550621862243E-002   0.0000000000000000     
   5.5156485749607236E-002   7.1341224486068902E-002   0.0000000000000000     
   5.7550681281371190E-002   7.7190372030391530E-002   0.0000000000000000     
   5.9917081592757299E-002   8.3237993254830153E-002   0.0000000000000000     
   4.5696146926217054E-002   5.9494549544758399E-002   0.0000000000000000     
   4.7963644228739499E-002   6.4964253649513873E-002   0.0000000000000000     
   5.0203650407841478E-002   7.0637092479109778E-002   0.0000000000000000     
   5.2416165463522978E-002   7.6513066033546101E-002   0.0000000000000000     
   5.4601189395784011E-002   8.2592174312822828E-002   0.0000000000000000     
   7.7073454252344159E-002   8.5563009753216679E-002   0.0000000000000000     
   7.9895059717580860E-002   9.1717272560162391E-002   0.0000000000000000     
   8.2580786102324444E-002   9.8012493828153247E-002   0.0000000000000000     
   8.5130633406574896E-002  0.10444867355718931        0.0000000000000000     
   8.7544601630332258E-002  0.11102581174727053        0.0000000000000000     
   7.1153214021037386E-002   8.4723410975027086E-002   0.0000000000000000     
   7.3803580381368139E-002   9.0897708313338155E-002   0.0000000000000000     
   7.6331407425033554E-002   9.7223776264551975E-002   0.0000000000000000     
   7.8736695152033645E-002  0.10370161482866849        0.0000000000000000     
   8.1019443562368371E-002  0.11033122400568778        0.0000000000000000     
   6.5434423134508424E-002   8.3948405475564911E-002   0.0000000000000000     
   6.7911423884052052E-002   9.0146937481392686E-002   0.0000000000000000     
   7.0277182298213475E-002   9.6503659776440862E-002   0.0000000000000000     
   7.2531698376992693E-002  0.10301857236070948        0.0000000000000000     
   7.4674972120389677E-002  0.10969167523419852        0.0000000000000000     
   5.9917081592757299E-002   8.3237993254830153E-002   0.0000000000000000     
   6.2218590225632621E-002   8.9464960064325888E-002   0.0000000000000000     
   6.4418110721864222E-002   9.5852144363819919E-002   0.0000000000000000     
   6.6515643081452039E-002  0.10239954615331220        0.0000000000000000     
   6.8511187304396134E-002  0.10910716543280274        0.0000000000000000     
   5.4601189395784011E-002   8.2592174312822828E-002   0.0000000000000000     
   5.6725079406109845E-002   8.8851776062137899E-002   0.0000000000000000     
   5.8754192695985745E-002   9.5269230026689189E-002   0.0000000000000000     
   6.0688529265411718E-002  0.10184453620647672        0.0000000000000000     
   6.2528089114387772E-002  0.10857769460150049        0.0000000000000000     
   8.7544601630332258E-002  0.11102581174727053        0.0000000000000000     
   8.9788954743532629E-002  0.11771589602758115        0.0000000000000000     
   9.1829956716112229E-002  0.12449091402730540        0.0000000000000000     
   9.3667607548070977E-002  0.13135086574644331        0.0000000000000000     
   9.5301907239408915E-002  0.13829575118499485        0.0000000000000000     
   8.1019443562368371E-002  0.11033122400568778        0.0000000000000000     
   8.3138450649992035E-002  0.11707498654788051        0.0000000000000000     
   8.5052514408858818E-002  0.12389528520751746        0.0000000000000000     
   8.6761634838968774E-002  0.13079211998459855        0.0000000000000000     
   8.8265811940321903E-002  0.13776549087912388        0.0000000000000000     
   7.4674972120389677E-002  0.10969167523419852        0.0000000000000000     
   7.6662596563055740E-002  0.11647795900923759        0.0000000000000000     
   7.8450164739642253E-002  0.12333241429815617        0.0000000000000000     
   8.0037676650149187E-002  0.13025504110095434        0.0000000000000000     
   8.1425132294576555E-002  0.13724583941763208        0.0000000000000000     
   6.8511187304396134E-002  0.10910716543280274        0.0000000000000000     
   7.0361392482723842E-002  0.11592481341165231        0.0000000000000000     
   7.2022907708462536E-002  0.12280230129922164        0.0000000000000000     
   7.3495732981612202E-002  0.12973962909551068        0.0000000000000000     
   7.4779868302172856E-002  0.13673679680051953        0.0000000000000000     
   6.2528089114387772E-002  0.10857769460150049        0.0000000000000000     
   6.4234838408996270E-002  0.11541554975512475        0.0000000000000000     
   6.5770743315319624E-002  0.12230494621071379        0.0000000000000000     
   6.7135803833357807E-002  0.12924588396826761        0.0000000000000000     
   6.8330019963110861E-002  0.13623836302778619        0.0000000000000000     
   9.5301907239408915E-002  0.13829575118499485        0.0000000000000000     
   9.7046758754770840E-002  0.14553031808566608        0.0000000000000000     
   9.9216065058801498E-002  0.15325931419116312        0.0000000000000000     
  0.10180982615150093       0.16148273950148592        0.0000000000000000     
  0.10482804203286912       0.17020059401663454        0.0000000000000000     
   8.8265811940321903E-002  0.13776549087912388        0.0000000000000000     
   8.9851759882494150E-002  0.14496677332185168        0.0000000000000000     
   9.1806192835061556E-002  0.15254734274354037        0.0000000000000000     
   9.4129110798024093E-002  0.16050719914418993        0.0000000000000000     
   9.6820513771381789E-002  0.16884634252380029        0.0000000000000000     
   8.1425132294576555E-002  0.13724583941763208        0.0000000000000000     
   8.2872716176630307E-002  0.14442832327030697        0.0000000000000000     
   8.4640612800016488E-002  0.15192600668109663        0.0000000000000000     
   8.6728822164735056E-002  0.15973888965000099        0.0000000000000000     
   8.9137344270786012E-002  0.16786697217702015        0.0000000000000000     
   7.4779868302172856E-002  0.13673679680051953        0.0000000000000000     
   7.6109627637179295E-002  0.14391496793103198        0.0000000000000000     
   7.7719324953666236E-002  0.15139530600383189        0.0000000000000000     
   7.9608960251633776E-002  0.15917781101891929        0.0000000000000000     
   8.1778533531081790E-002  0.16726248297629415        0.0000000000000000     
   6.8330019963110861E-002  0.13623836302778619        0.0000000000000000     
   6.9562494264141100E-002  0.14342670730402662        0.0000000000000000     
   7.1042329296010884E-002  0.15095524071174615        0.0000000000000000     
   7.2769525058720239E-002  0.15882396325094469        0.0000000000000000     
   7.4744081552269123E-002  0.16703287492162228        0.0000000000000000     
   0.0000000000000000        0.0000000000000000        0.0000000000000000     
   2.8802003138549944E-003   1.7440773158132385E-003   0.0000000000000000     
   5.8729673966823638E-003   3.8636675669117891E-003   0.0000000000000000     
   8.9783012484821074E-003   6.3587707532956521E-003   0.0000000000000000     
   1.2196201869254230E-002   9.2293868749648254E-003   0.0000000000000000     
   0.0000000000000000        0.0000000000000000        0.0000000000000000     
   2.6102099125218268E-003   1.5881944279707424E-003   0.0000000000000000     
   5.2896611494748624E-003   3.5558355517837596E-003   0.0000000000000000     
   8.0383537108591075E-003   5.9029233714390532E-003   0.0000000000000000     
   1.0856287596674561E-002   8.6294578869366180E-003   0.0000000000000000     
   0.0000000000000000        0.0000000000000000        0.0000000000000000     
   2.3398380832555720E-003   1.4582518952899921E-003   0.0000000000000000     
   4.7198670420698407E-003   3.2990410436919996E-003   0.0000000000000000     
   7.1400868764428050E-003   5.5223674452060207E-003   0.0000000000000000     
   9.6004975863744658E-003   8.1282310998320572E-003   0.0000000000000000     
   0.0000000000000000        0.0000000000000000        0.0000000000000000     
   2.0690848260562279E-003   1.3542497177709886E-003   0.0000000000000000     
   4.1635850744672952E-003   3.0932840426365080E-003   0.0000000000000000     
   6.2835007452331990E-003   5.2171029745965575E-003   0.0000000000000000     
   8.4288318383539430E-003   7.7257065136511378E-003   0.0000000000000000     
   0.0000000000000000        0.0000000000000000        0.0000000000000000     
   1.7979501409237956E-003   1.2761878954137310E-003   0.0000000000000000     
   3.6208152466672260E-003   2.9385645486172856E-003   0.0000000000000000     
   5.4685953172302912E-003   4.9871299596106642E-003   0.0000000000000000     
   7.3412903526129929E-003   7.4218841283938651E-003   0.0000000000000000     
   1.2196201869254230E-002   9.2293868749648254E-003   0.0000000000000000     
   1.5428545306739273E-002   1.2372613557187271E-002   0.0000000000000000     
   1.8577207608677791E-002   1.5685548425230941E-002   0.0000000000000000     
   2.1642188775069782E-002   1.9168191479095840E-002   0.0000000000000000     
   2.4623488805915243E-002   2.2820542718781971E-002   0.0000000000000000     
   1.0856287596674561E-002   8.6294578869366180E-003   0.0000000000000000     
   1.3689657652903080E-002   1.1652167564789756E-002   0.0000000000000000     
   1.6484658725526524E-002   1.4887780871511753E-002   0.0000000000000000     
   1.9241290814544895E-002   1.8336297807102615E-002   0.0000000000000000     
   2.1959553919958179E-002   2.1997718371562343E-002   0.0000000000000000     
   9.6004975863744658E-003   8.1282310998320572E-003   0.0000000000000000     
   1.2077055672503867E-002   1.1048102044643763E-002   0.0000000000000000     
   1.4545717635470053E-002   1.4213450316714792E-002   0.0000000000000000     
   1.7006483475273025E-002   1.7624275916045148E-002   0.0000000000000000     
   1.9459353191912776E-002   2.1280578842634828E-002   0.0000000000000000     
   8.4288318383539430E-003   7.7257065136511378E-003   0.0000000000000000     
   1.0590739365541633E-002   1.0560416996749292E-002   0.0000000000000000     
   1.2760384338508381E-002   1.3662556760840059E-002   0.0000000000000000     
   1.4937766757254185E-002   1.7032125805923438E-002   0.0000000000000000     
   1.7122886621779045E-002   2.0669124131999429E-002   0.0000000000000000     
   7.3412903526129929E-003   7.4218841283938651E-003   0.0000000000000000     
   9.2307087320163805E-003   1.0189112421106343E-002   0.0000000000000000     
   1.1128658834641505E-002   1.3235100203887549E-002   0.0000000000000000     
   1.3035140660488371E-002   1.6559847476737485E-002   0.0000000000000000     
   1.4950154209556973E-002   2.0163354239656150E-002   0.0000000000000000     
   2.4623488805915243E-002   2.2820542718781971E-002   0.0000000000000000     
   2.7527742506906299E-002   2.6667576218432631E-002   0.0000000000000000     