 <VTKFile type="UnstructuredGrid"  version="0.1"   >
 <UnstructuredGrid>
 <Piece  NumberOfPoints="          1600 "  NumberOfCells="         1024 ">
 <Points>
 <DataArray  type="Float64" NumberOfComponents="3"  format="ascii" >
   0.0000000000000000        0.0000000000000000        0.0000000000000000     
   3.1250000000000000E-002   0.0000000000000000        0.0000000000000000     
   6.2500000000000000E-002   0.0000000000000000        0.0000000000000000     
   9.3750000000000000E-002   0.0000000000000000        0.0000000000000000     
  0.12500000000000000        0.0000000000000000        0.0000000000000000     
   0.0000000000000000        3.1250000000000000E-002   0.0000000000000000     
   3.1250000000000000E-002   3.1250000000000000E-002   0.0000000000000000     
   6.2500000000000000E-002   3.1250000000000000E-002   0.0000000000000000     
   9.3750000000000000E-002   3.1250000000000000E-002   0.0000000000000000     
  0.12500000000000000        3.1250000000000000E-002   0.0000000000000000     
   0.0000000000000000        6.2500000000000000E-002   0.0000000000000000     
   3.1250000000000000E-002   6.2500000000000000E-002   0.0000000000000000     
   6.2500000000000000E-002   6.2500000000000000E-002   0.0000000000000000     
   9.3750000000000000E-002   6.2500000000000000E-002   0.0000000000000000     
  0.12500000000000000        6.2500000000000000E-002   0.0000000000000000     
   0.0000000000000000        9.3750000000000000E-002   0.0000000000000000     
   3.1250000000000000E-002   9.3750000000000000E-002   0.0000000000000000     
   6.2500000000000000E-002   9.3750000000000000E-002   0.0000000000000000     
   9.3750000000000000E-002   9.3750000000000000E-002   0.0000000000000000     
  0.12500000000000000        9.3750000000000000E-002   0.0000000000000000     
   0.0000000000000000       0.12500000000000000        0.0000000000000000     
   3.1250000000000000E-002  0.12500000000000000        0.0000000000000000     
   6.2500000000000000E-002  0.12500000000000000        0.0000000000000000     
   9.3750000000000000E-002  0.12500000000000000        0.0000000000000000     
  0.12500000000000000       0.12500000000000000        0.0000000000000000     
  0.12500000000000000        0.0000000000000000        0.0000000000000000     
  0.15625000000000000        0.0000000000000000        0.0000000000000000     
  0.18750000000000000        0.0000000000000000        0.0000000000000000     
  0.21875000000000000        0.0000000000000000        0.0000000000000000     
  0.25000000000000000        0.0000000000000000        0.0000000000000000     
  0.12500000000000000        3.1250000000000000E-002   0.0000000000000000     
  0.15625000000000000        3.1250000000000000E-002   0.0000000000000000     
  0.18750000000000000        3.1250000000000000E-002   0.0000000000000000     
  0.21875000000000000        3.1250000000000000E-002   0.0000000000000000     
  0.25000000000000000        3.1250000000000000E-002   0.0000000000000000     
  0.12500000000000000        6.2500000000000000E-002   0.0000000000000000     
  0.15625000000000000        6.2500000000000000E-002   0.0000000000000000     
  0.18750000000000000        6.2500000000000000E-002   0.0000000000000000     
  0.21875000000000000        6.2500000000000000E-002   0.0000000000000000     
  0.25000000000000000        6.2500000000000000E-002   0.0000000000000000     
  0.12500000000000000        9.3750000000000000E-002   0.0000000000000000     
  0.15625000000000000        9.3750000000000000E-002   0.0000000000000000     
  0.18750000000000000        9.3750000000000000E-002   0.0000000000000000     
  0.21875000000000000        9.3750000000000000E-002   0.0000000000000000     
  0.25000000000000000        9.3750000000000000E-002   0.0000000000000000     
  0.12500000000000000       0.12500000000000000        0.0000000000000000     
  0.15625000000000000       0.12500000000000000        0.0000000000000000     
  0.18750000000000000       0.12500000000000000        0.0000000000000000     
  0.21875000000000000       0.12500000000000000        0.0000000000000000     
  0.25000000000000000       0.12500000000000000        0.0000000000000000     
  0.25000000000000000        0.0000000000000000        0.0000000000000000     
  0.28125000000000000        0.0000000000000000        0.0000000000000000     
  0.31250000000000000        0.0000000000000000        0.0000000000000000     
  0.34375000000000000        0.0000000000000000        0.0000000000000000     
  0.37500000000000000        0.0000000000000000        0.0000000000000000     
  0.25000000000000000        3.1250000000000000E-002   0.0000000000000000     
  0.28125000000000000        3.1250000000000000E-002   0.0000000000000000     
  0.31250000000000000        3.1250000000000000E-002   0.0000000000000000     
  0.34375000000000000        3.1250000000000000E-002   0.0000000000000000     
  0.37500000000000000        3.1250000000000000E-002   0.0000000000000000     
  0.25000000000000000        6.2500000000000000E-002   0.0000000000000000     
  0.28125000000000000        6.2500000000000000E-002   0.0000000000000000     
  0.31250000000000000        6.2500000000000000E-002   0.0000000000000000     
  0.34375000000000000        6.2500000000000000E-002   0.0000000000000000     
  0.37500000000000000        6.2500000000000000E-002   0.0000000000000000     
  0.25000000000000000        9.3750000000000000E-002   0.0000000000000000     
  0.28125000000000000        9.3750000000000000E-002   0.0000000000000000     
  0.31250000000000000        9.3750000000000000E-002   0.0000000000000000     
  0.34375000000000000        9.3750000000000000E-002   0.0000000000000000     
  0.37500000000000000        9.3750000000000000E-002   0.0000000000000000     
  0.25000000000000000       0.12500000000000000        0.0000000000000000     
  0.28125000000000000       0.12500000000000000        0.0000000000000000     
  0.31250000000000000       0.12500000000000000        0.0000000000000000     
  0.34375000000000000       0.12500000000000000        0.0000000000000000     
  0.37500000000000000       0.12500000000000000        0.0000000000000000     
  0.37500000000000000        0.0000000000000000        0.0000000000000000     
  0.40625000000000000        0.0000000000000000        0.0000000000000000     
  0.43750000000000000        0.0000000000000000        0.0000000000000000     
  0.46875000000000000        0.0000000000000000        0.0000000000000000     
  0.50000000000000000        0.0000000000000000        0.0000000000000000     
  0.37500000000000000        3.1250000000000000E-002   0.0000000000000000     
  0.40625000000000000        3.1250000000000000E-002   0.0000000000000000     
  0.43750000000000000        3.1250000000000000E-002   0.0000000000000000     
  0.46875000000000000        3.1250000000000000E-002   0.0000000000000000     
  0.50000000000000000        3.1250000000000000E-002   0.0000000000000000     
  0.37500000000000000        6.2500000000000000E-002   0.0000000000000000     
  0.40625000000000000        6.2500000000000000E-002   0.0000000000000000     
  0.43750000000000000        6.2500000000000000E-002   0.0000000000000000     
  0.46875000000000000        6.2500000000000000E-002   0.0000000000000000     
  0.50000000000000000        6.2500000000000000E-002   0.0000000000000000     
  0.37500000000000000        9.3750000000000000E-002   0.0000000000000000     
  0.40625000000000000        9.3750000000000000E-002   0.0000000000000000     
  0.43750000000000000        9.3750000000000000E-002   0.0000000000000000     
  0.46875000000000000        9.3750000000000000E-002   0.0000000000000000     
  0.50000000000000000        9.3750000000000000E-002   0.0000000000000000     
  0.37500000000000000       0.12500000000000000        0.0000000000000000     
  0.40625000000000000       0.12500000000000000        0.0000000000000000     
  0.43750000000000000       0.12500000000000000        0.0000000000000000     
  0.46875000000000000       0.12500000000000000        0.0000000000000000     
  0.50000000000000000       0.12500000000000000        0.0000000000000000     
  0.50000000000000000        0.0000000000000000        0.0000000000000000     
  0.53125000000000000        0.0000000000000000        0.0000000000000000     
  0.56250000000000000        0.0000000000000000        0.0000000000000000     
  0.59375000000000000        0.0000000000000000        0.0000000000000000     
  0.62500000000000000        0.0000000000000000        0.0000000000000000     
  0.50000000000000000        3.1250000000000000E-002   0.0000000000000000     
  0.53125000000000000        3.1250000000000000E-002   0.0000000000000000     
  0.56250000000000000        3.1250000000000000E-002   0.0000000000000000     
  0.59375000000000000        3.1250000000000000E-002   0.0000000000000000     
  0.62500000000000000        3.1250000000000000E-002   0.0000000000000000     
  0.50000000000000000        6.2500000000000000E-002   0.0000000000000000     
  0.53125000000000000        6.2500000000000000E-002   0.0000000000000000     
  0.56250000000000000        6.2500000000000000E-002   0.0000000000000000     
  0.59375000000000000        6.2500000000000000E-002   0.0000000000000000     
  0.62500000000000000        6.2500000000000000E-002   0.0000000000000000     
  0.50000000000000000        9.3750000000000000E-002   0.0000000000000000     
  0.53125000000000000        9.3750000000000000E-002   0.0000000000000000     
  0.56250000000000000        9.3750000000000000E-002   0.0000000000000000     
  0.59375000000000000        9.3750000000000000E-002   0.0000000000000000     
  0.62500000000000000        9.3750000000000000E-002   0.0000000000000000     
  0.50000000000000000       0.12500000000000000        0.0000000000000000     
  0.53125000000000000       0.12500000000000000        0.0000000000000000     
  0.56250000000000000       0.12500000000000000        0.0000000000000000     
[...]
 <PointData>
 <DataArray  type="Float64" Name="disp" NumberOfComponents="3" format="ascii">
   0.0000000000000000        0.0000000000000000        0.0000000000000000     
   6.0944157347681384E-003   3.7870439966887796E-003   0.0000000000000000     
   1.1664059954348369E-002   7.3177725987875102E-003   0.0000000000000000     
   1.6708932658740690E-002   1.0592185806296192E-002   0.0000000000000000     
   2.1229033847945104E-002   1.3610283619214826E-002   0.0000000000000000     
   0.0000000000000000        0.0000000000000000        0.0000000000000000     
   4.8909606197235587E-003   3.0192703909626339E-003   0.0000000000000000     
   9.5737963038999858E-003   6.0548871281522459E-003   0.0000000000000000     
   1.4048507052529281E-002   9.1068502115688350E-003   0.0000000000000000     
   1.8315092865611449E-002   1.2175159641212406E-002   0.0000000000000000     
   0.0000000000000000        0.0000000000000000        0.0000000000000000     
   3.9541723157069456E-003   2.4226330615710230E-003   0.0000000000000000     
   7.9119270579323889E-003   5.0576763280978047E-003   0.0000000000000000     
   1.1873264226676332E-002   7.9051297995803450E-003   0.0000000000000000     
   1.5838183821938776E-002   1.0964993476018646E-002   0.0000000000000000     
   0.0000000000000000        0.0000000000000000        0.0000000000000000     
   3.2840508227182999E-003   1.9971320085139460E-003   0.0000000000000000     
   6.6784522164455807E-003   4.3261401986241857E-003   0.0000000000000000     
   1.0183204181181842E-002   6.9870245703307198E-003   0.0000000000000000     
   1.3798306716927085E-002   9.9797851236335458E-003   0.0000000000000000     
   0.0000000000000000        0.0000000000000000        0.0000000000000000     
   2.8805961407576209E-003   1.7427672317914034E-003   0.0000000000000000     
   5.8733717794395577E-003   3.8602787397313890E-003   0.0000000000000000     
   8.9783269160458104E-003   6.3525345238199579E-003   0.0000000000000000     
   1.2195461550576381E-002   9.2195345840571079E-003   0.0000000000000000     
   2.1229033847945104E-002   1.3610283619214826E-002   0.0000000000000000     
   2.5436890524390358E-002   1.6600888472779317E-002   0.0000000000000000     
   2.9545029690505206E-002   1.9792822802225583E-002   0.0000000000000000     
   3.3553451346289648E-002   2.3186086607553610E-002   0.0000000000000000     
   3.7462155491743677E-002   2.6780679888763408E-002   0.0000000000000000     
   1.8315092865611449E-002   1.2175159641212406E-002   0.0000000000000000     
   2.2412157643243516E-002   1.5327064767444490E-002   0.0000000000000000     
   2.6378305285522530E-002   1.8629814940626627E-002   0.0000000000000000     
   3.0213535792448482E-002   2.2083410160758814E-002   0.0000000000000000     
   3.3917849164021380E-002   2.5687850427841056E-002   0.0000000000000000     
   1.5838183821938776E-002   1.0964993476018646E-002   0.0000000000000000     
   1.9735611950461418E-002   1.4195472510466628E-002   0.0000000000000000     
   2.3494474718985962E-002   1.7554772055978225E-002   0.0000000000000000     
   2.7114772127512413E-002   2.1042892112553432E-002   0.0000000000000000     
   3.0596504176040755E-002   2.4659832680192246E-002   0.0000000000000000     
   1.3798306716927085E-002   9.9797851236335458E-003   0.0000000000000000     
   1.7407253446044057E-002   1.3206111701845739E-002   0.0000000000000000     
   2.0893537990895501E-002   1.6567694148280378E-002   0.0000000000000000     
   2.4257160351481424E-002   2.0064532462937455E-002   0.0000000000000000     
   2.7498120527801810E-002   2.3696626645816978E-002   0.0000000000000000     
   1.2195461550576381E-002   9.2195345840571079E-003   0.0000000000000000     
   1.5427082129991436E-002   1.2358982341581825E-002   0.0000000000000000     
   1.8575495101251147E-002   1.5668581217533086E-002   0.0000000000000000     
   2.1640700464355518E-002   1.9148331211910900E-002   0.0000000000000000     
   2.4622698219304542E-002   2.2798232324715256E-002   0.0000000000000000     
   3.7462155491743677E-002   2.6780679888763408E-002   0.0000000000000000     
   4.1281162873947064E-002   3.0575575452379374E-002   0.0000000000000000     
   4.5020494239979593E-002   3.4569746104925893E-002   0.0000000000000000     
   4.8680149589841230E-002   3.8763191846402978E-002   0.0000000000000000     
   5.2260128923532004E-002   4.3155912676810612E-002   0.0000000000000000     
   3.3917849164021380E-002   2.5687850427841056E-002   0.0000000000000000     
   3.7516405467074930E-002   2.9473784569984906E-002   0.0000000000000000     
   4.1034364768442841E-002   3.3471861415301923E-002   0.0000000000000000     
   4.4471727068125112E-002   3.7682080963792101E-002   0.0000000000000000     
   4.7828492366121744E-002   4.2104443215455457E-002   0.0000000000000000     
   3.0596504176040755E-002   2.4659832680192246E-002   0.0000000000000000     
   3.3968419766711812E-002   2.8450945306786005E-002   0.0000000000000000     
   3.7259267801666385E-002   3.2461581540226041E-002   0.0000000000000000     
   4.0469048280904474E-002   3.6691741380512344E-002   0.0000000000000000     
   4.3597761204426072E-002   4.1141424827644921E-002   0.0000000000000000     
   2.7498120527801810E-002   2.3696626645816978E-002   0.0000000000000000     
   3.0637205772857730E-002   2.7507057662782667E-002   0.0000000000000000     
   3.3695203339650232E-002   3.1538906479698231E-002   0.0000000000000000     
   3.6672113228179308E-002   3.5792173096563698E-002   0.0000000000000000     
   3.9567935438444959E-002   4.0266857513379037E-002   0.0000000000000000     
   2.4622698219304542E-002   2.2798232324715256E-002   0.0000000000000000     
   2.7522763485512674E-002   2.6642121637974886E-002   0.0000000000000000     
   3.0342171382394367E-002   3.0703836233718515E-002   0.0000000000000000     
   3.3080921909949615E-002   3.4983376111946136E-002   0.0000000000000000     
   3.5739015068178427E-002   3.9480741272657757E-002   0.0000000000000000     
   5.2260128923532004E-002   4.3155912676810612E-002   0.0000000000000000     
   5.5757908434201073E-002   4.7761419560636550E-002   0.0000000000000000     
   5.9170964314997611E-002   5.2593223462368527E-002   0.0000000000000000     
   6.2499296565921618E-002   5.7651324382006548E-002   0.0000000000000000     
   6.5742905186973094E-002   6.2935722319550608E-002   0.0000000000000000     
   4.7828492366121744E-002   4.2104443215455457E-002   0.0000000000000000     
   5.1107864963302496E-002   4.6742689236611346E-002   0.0000000000000000     
   5.4313049160537127E-002   5.1600560093579120E-002   0.0000000000000000     
   5.7444044957825610E-002   5.6678055786358789E-002   0.0000000000000000     
   6.0500852355167972E-002   6.1975176314950371E-002   0.0000000000000000     
   4.3597761204426072E-002   4.1141424827644921E-002   0.0000000000000000     
   4.6650919228375262E-002   4.5807997455725752E-002   0.0000000000000000     
   4.9634035008896155E-002   5.0688824838856762E-002   0.0000000000000000     
   5.2547108545988715E-002   5.5783906977037979E-002   0.0000000000000000     
   5.5390139839652970E-002   6.1093243870269390E-002   0.0000000000000000     
   3.9567935438444959E-002   4.0266857513379037E-002   0.0000000000000000     
   4.2387071229419364E-002   4.4957344217979783E-002   0.0000000000000000     
   4.5133921860074679E-002   4.9858017698201473E-002   0.0000000000000000     
   4.7808487330410925E-002   5.4968877954044093E-002   0.0000000000000000     
   5.0410767640428074E-002   6.0289924985507663E-002   0.0000000000000000     
   3.5739015068178427E-002   3.9480741272657757E-002   0.0000000000000000     
   3.8316320966434794E-002   4.4190729523373447E-002   0.0000000000000000     
   4.0812709714072727E-002   4.9108138671613240E-002   0.0000000000000000     
   4.3228181311092219E-002   5.4232968717377150E-002   0.0000000000000000     
   4.5562735757493290E-002   5.9565219660665185E-002   0.0000000000000000     
   6.5742905186973094E-002   6.2935722319550608E-002   0.0000000000000000     
   6.8904615909186562E-002   6.8413815654522550E-002   0.0000000000000000     
   7.1987254463596592E-002   7.4053002766444248E-002   0.0000000000000000     
   7.4990820850203144E-002   7.9853283655315660E-002   0.0000000000000000     
   7.7915315069006258E-002   8.5814658321136827E-002   0.0000000000000000     
   6.0500852355167972E-002   6.1975176314950371E-002   0.0000000000000000     
   6.3482346551754540E-002   6.7465685783325180E-002   0.0000000000000000     
   6.6387402746775626E-002   7.3123348295454541E-002   0.0000000000000000     
   6.9216020940231257E-002   7.8948163851338446E-002   0.0000000000000000     
   7.1968201132121434E-002   8.4940132450976896E-002   0.0000000000000000     
   5.5390139839652970E-002   6.1093243870269390E-002   0.0000000000000000     
   5.8162490944035347E-002   6.6596004910024958E-002   0.0000000000000000     
   6.0863523913282279E-002   7.2271359487778575E-002   0.0000000000000000     
   6.3493238747393765E-002   7.8119307603530308E-002   0.0000000000000000     
   6.6051635446369814E-002   8.4139849257280103E-002   0.0000000000000000     
   5.0410767640428074E-002   6.0289924985507663E-002   0.0000000000000000     
   5.2945049086028990E-002   6.5804773034621858E-002   0.0000000000000000     
   5.5415617963116524E-002   7.1497036343416392E-002   0.0000000000000000     
   5.7822474271690662E-002   7.7366714911891246E-002   0.0000000000000000     
   6.0165618011751430E-002   8.3413808740046433E-002   0.0000000000000000     
   4.5562735757493290E-002   5.9565219660665185E-002   0.0000000000000000     
   4.7830020977735477E-002   6.5091990157115920E-002   0.0000000000000000     
   5.0043684896278376E-002   7.0800378862367966E-002   0.0000000000000000     
   5.2203727513121974E-002   7.6690385776421274E-002   0.0000000000000000     
   5.4310148828266278E-002   8.2762010899275901E-002   0.0000000000000000     
   7.7915315069006258E-002   8.5814658321136827E-002   0.0000000000000000     
   8.0751712519916835E-002   9.1941587443307715E-002   0.0000000000000000     
   8.3490988602845762E-002   9.8238531701228371E-002   0.0000000000000000     
   8.6133143317793093E-002  0.10470549109489877        0.0000000000000000     
   8.8678176664758829E-002  0.11134246562431893        0.0000000000000000     
   7.1968201132121434E-002   8.4940132450976896E-002   0.0000000000000000     
   7.4633867815548968E-002   9.1100163236033635E-002   0.0000000000000000     
   7.7202945483616739E-002   9.7429165348172406E-002   0.0000000000000000     
   7.9675434136324746E-002  0.10392713878739317        0.0000000000000000     
   8.2051333773672963E-002  0.11059408355369596        0.0000000000000000     
   6.6051635446369814E-002   8.4139849257280103E-002   0.0000000000000000     
   6.8526827939004678E-002   9.0330601386728590E-002   0.0000000000000000     
   7.0906930154092621E-002   9.6689180929576304E-002   0.0000000000000000     
   7.3191942091633627E-002  0.10321558788582332        0.0000000000000000     
   7.5381863751627698E-002  0.10990982225546955        0.0000000000000000     
   6.0165618011751430E-002   8.3413808740046433E-002   0.0000000000000000     
   6.2430592890283965E-002   8.9632901895392553E-002   0.0000000000000000     
   6.4602942614273406E-002   9.6018578445440109E-002   0.0000000000000000     
   6.6682667183719763E-002  0.10257083839018918        0.0000000000000000     
   6.8669766598623047E-002  0.10928968172963974        0.0000000000000000     
   5.4310148828266278E-002   8.2762010899275901E-002   0.0000000000000000     
   5.6345162669386807E-002   8.9007064762025509E-002   0.0000000000000000     
   5.8290982864159097E-002   9.5417357895763805E-002   0.0000000000000000     
   6.0147609412583153E-002  0.10199289030049080        0.0000000000000000     
   6.1915042314658997E-002  0.10873366197620650        0.0000000000000000     
   8.8678176664758829E-002  0.11134246562431893        0.0000000000000000     
   9.1123015264512233E-002  0.11814718481998589        0.0000000000000000     
   9.3464585737822625E-002  0.12511737821239674        0.0000000000000000     
   9.5702888084690033E-002  0.13225304580155151        0.0000000000000000     
   9.7837922305114414E-002  0.13955418758745014        0.0000000000000000     
   8.2051333773672963E-002  0.11059408355369596        0.0000000000000000     
   8.4334213242079570E-002  0.11742425252017111        0.0000000000000000     
   8.6527641387962734E-002  0.12441189855990899        0.0000000000000000     
   8.8631618211322441E-002  0.13155702167290959        0.0000000000000000     
   9.0646143712158678E-002  0.13885962185917292        0.0000000000000000     
   7.5381863751627698E-002  0.10990982225546955        0.0000000000000000     
   7.7481746938211971E-002  0.11676320125737918        0.0000000000000000     
   7.9496643455523527E-002  0.12376704211041627        0.0000000000000000     
   8.1426553303562382E-002  0.13092134481458084        0.0000000000000000     
   8.3271476482328535E-002  0.13822610936987290        0.0000000000000000     
   6.8669766598623047E-002  0.10928968172963974        0.0000000000000000     
   7.0565616352909408E-002  0.11616403103161009        0.0000000000000000     
   7.2371591940505034E-002  0.12318280886391866        0.0000000000000000     
   7.4087693361409912E-002  0.13034601522656536        0.0000000000000000     
   7.5713920615624014E-002  0.13765365011955019        0.0000000000000000     
   6.1915042314658997E-002  0.10873366197620650        0.0000000000000000     
   6.3585821486171909E-002  0.11562674184286389        0.0000000000000000     
   6.5152486842907226E-002  0.12265919882041609        0.0000000000000000     
   6.6615038384864947E-002  0.12983103290886305        0.0000000000000000     
   6.7973476112045073E-002  0.13714224410820477        0.0000000000000000     
   9.7837922305114414E-002  0.13955418758745014        0.0000000000000000     
   9.9794919612715360E-002  0.14690833361883712        0.0000000000000000     
  0.10149911122111244       0.15420301394445685        0.0000000000000000     
  0.10295049713030566       0.16143822856430931        0.0000000000000000     
  0.10414907734029501       0.16861397747839454        0.0000000000000000     
   9.0646143712158678E-002  0.13885962185917292        0.0000000000000000     
   9.2547593942151299E-002  0.14626667385167610        0.0000000000000000     
   9.4312344952980173E-002  0.15372515238339629        0.0000000000000000     
   9.5940396744645273E-002  0.16123505745433350        0.0000000000000000     
   9.7431749317146599E-002  0.16879638906448774        0.0000000000000000     
   8.3271476482328535E-002  0.13822610936987290        0.0000000000000000     
   8.5035111514736819E-002  0.14566230857571949        0.0000000000000000     
   8.6721156923702039E-002  0.15321091523154742        0.0000000000000000     
   8.8329612709224167E-002  0.16087192933735686        0.0000000000000000     
   8.9860478871303287E-002  0.16864535089314778        0.0000000000000000     
   7.5713920615624014E-002  0.13765365011955019        0.0000000000000000     
   7.7257472330471880E-002  0.14509523779096717        0.0000000000000000     
   7.8725547133277993E-002  0.15266030248891027        0.0000000000000000     
   8.0118145024042381E-002  0.16034884421337944        0.0000000000000000     
   8.1435266002765044E-002  0.16816086296437463        0.0000000000000000     
   6.7973476112045073E-002  0.13714224410820477        0.0000000000000000     
   6.9214676389356494E-002  0.14456546149741933        0.0000000000000000     
   7.0325515581708103E-002  0.15207331415548475        0.0000000000000000     
   7.1305993689099900E-002  0.15966580208240111        0.0000000000000000     
   7.2156110711531884E-002  0.16734292527816830        0.0000000000000000     
   0.0000000000000000        0.0000000000000000        0.0000000000000000     
   2.8805961407576209E-003   1.7427672317914034E-003   0.0000000000000000     
   5.8733717794395577E-003   3.8602787397313890E-003   0.0000000000000000     
   8.9783269160458104E-003   6.3525345238199579E-003   0.0000000000000000     
   1.2195461550576381E-002   9.2195345840571079E-003   0.0000000000000000     
   0.0000000000000000        0.0000000000000000        0.0000000000000000     
   2.6103384012152791E-003   1.5870355261751864E-003   0.0000000000000000     
   5.2893755032467479E-003   3.5529250547919377E-003   0.0000000000000000     
   8.0371113060944081E-003   5.8976685858502529E-003   0.0000000000000000     
   1.0853545809758256E-002   8.6212661193501312E-003   0.0000000000000000     
   0.0000000000000000        0.0000000000000000        0.0000000000000000     
   2.3398077354816436E-003   1.4574336864370870E-003   0.0000000000000000     
   4.7191531441995761E-003   3.2969122471783519E-003   0.0000000000000000     
   7.1380362261538001E-003   5.5184356822237952E-003   0.0000000000000000     
   9.5964569813443111E-003   8.1220039915734180E-003   0.0000000000000000     
   0.0000000000000000        0.0000000000000000        0.0000000000000000     
   2.0690041435567144E-003   1.3539617125771042E-003   0.0000000000000000     
   4.1627047022980449E-003   3.0922403168906327E-003   0.0000000000000000     
   6.2811016762239899E-003   5.2148358129405856E-003   0.0000000000000000     
   8.4241950653345492E-003   7.7217482007269616E-003   0.0000000000000000     
   0.0000000000000000        0.0000000000000000        0.0000000000000000     
   1.7979276254404919E-003   1.2766196045952390E-003   0.0000000000000000     
   3.6200301775421500E-003   2.9389092639287798E-003   0.0000000000000000     
   5.4663076563049749E-003   4.9868689780006234E-003   0.0000000000000000     
   7.3367600617289660E-003   7.4204987468107688E-003   0.0000000000000000     
   1.2195461550576381E-002   9.2195345840571079E-003   0.0000000000000000     
   1.5427082129991436E-002   1.2358982341581825E-002   0.0000000000000000     
   1.8575495101251147E-002   1.5668581217533086E-002   0.0000000000000000     
   2.1640700464355518E-002   1.9148331211910900E-002   0.0000000000000000     
   2.4622698219304542E-002   2.2798232324715256E-002   0.0000000000000000     
   1.0853545809758256E-002   8.6212661193501312E-003   0.0000000000000000     
   1.3684795816155627E-002   1.1641269214288810E-002   0.0000000000000000     
   1.6476978127203865E-002   1.4875229429663520E-002   0.0000000000000000     
   1.9230092742902955E-002   1.8323146765474262E-002   0.0000000000000000     
   2.1944139663252909E-002   2.1985021221721038E-002   0.0000000000000000     
   9.5964569813443111E-003   8.1220039915734180E-003   0.0000000000000000     
   1.2070092318388712E-002   1.1040157104580627E-002   0.0000000000000000     
   1.4534619145904610E-002   1.4205434950598846E-002   0.0000000000000000     
   1.6990037463891990E-002   1.7617837529628061E-002   0.0000000000000000     
   1.9436347272350860E-002   2.1277364841668284E-002   0.0000000000000000     
   8.4241950653345492E-003   7.7217482007269616E-003   0.0000000000000000     
   1.0582971636690692E-002   1.0555646012457282E-002   0.0000000000000000     
   1.2748418157353380E-002   1.3659197780339059E-002   0.0000000000000000     
   1.4920534627322622E-002   1.7032403504372299E-002   0.0000000000000000     
   1.7099321046598410E-002   2.0675263184556997E-002   0.0000000000000000     
   7.3367600617289660E-003   7.4204987468107688E-003   0.0000000000000000     
   9.2234337710615597E-003   1.0187735937918765E-002   0.0000000000000000     
   1.1118375161550186E-002   1.3236517918884166E-002   0.0000000000000000     
   1.3021584233194848E-002   1.6566844689706969E-002   0.0000000000000000     
   1.4933060985995545E-002   2.0178716250387179E-002   0.0000000000000000     
   2.4622698219304542E-002   2.2798232324715256E-002   0.0000000000000000     
   2.7522763485512674E-002   2.6642121637974886E-002   0.0000000000000000     