 <VTKFile type="UnstructuredGrid"  version="0.1"   >
 <UnstructuredGrid>
 <Piece  NumberOfPoints="           100 "  NumberOfCells="           64 ">
 <Points>
 <DataArray  type="Float64" NumberOfComponents="3"  format="ascii" >
   0.0000000000000000        0.0000000000000000        0.0000000000000000     
  0.12500000000000000        0.0000000000000000        0.0000000000000000     
  0.25000000000000000        0.0000000000000000        0.0000000000000000     
  0.37500000000000000        0.0000000000000000        0.0000000000000000     
  0.50000000000000000        0.0000000000000000        0.0000000000000000     
   0.0000000000000000       0.12500000000000000        0.0000000000000000     
  0.12500000000000000       0.12500000000000000        0.0000000000000000     
  0.25000000000000000       0.12500000000000000        0.0000000000000000     
  0.37500000000000000       0.12500000000000000        0.0000000000000000     
  0.50000000000000000       0.12500000000000000        0.0000000000000000     
   0.0000000000000000       0.25000000000000000        0.0000000000000000     
  0.12500000000000000       0.25000000000000000        0.0000000000000000     
  0.25000000000000000       0.25000000000000000        0.0000000000000000     
  0.37500000000000000       0.25000000000000000        0.0000000000000000     
  0.50000000000000000       0.25000000000000000        0.0000000000000000     
   0.0000000000000000       0.37500000000000000        0.0000000000000000     
  0.12500000000000000       0.37500000000000000        0.0000000000000000     
  0.25000000000000000       0.37500000000000000        0.0000000000000000     
  0.37500000000000000       0.37500000000000000        0.0000000000000000     
  0.50000000000000000       0.37500000000000000        0.0000000000000000     
   0.0000000000000000       0.50000000000000000        0.0000000000000000     
  0.12500000000000000       0.50000000000000000        0.0000000000000000     
  0.25000000000000000       0.50000000000000000        0.0000000000000000     
  0.37500000000000000       0.50000000000000000        0.0000000000000000     
  0.50000000000000000       0.50000000000000000        0.0000000000000000     
  0.50000000000000000        0.0000000000000000        0.0000000000000000     
  0.62500000000000000        0.0000000000000000        0.0000000000000000     
  0.75000000000000000        0.0000000000000000        0.0000000000000000     
  0.87500000000000000        0.0000000000000000        0.0000000000000000     
   1.0000000000000000        0.0000000000000000        0.0000000000000000     
  0.50000000000000000       0.12500000000000000        0.0000000000000000     
  0.62500000000000000       0.12500000000000000        0.0000000000000000     
  0.75000000000000000       0.12500000000000000        0.0000000000000000     
  0.87500000000000000       0.12500000000000000        0.0000000000000000     
   1.0000000000000000       0.12500000000000000        0.0000000000000000     
  0.50000000000000000       0.25000000000000000        0.0000000000000000     
  0.62500000000000000       0.25000000000000000        0.0000000000000000     
  0.75000000000000000       0.25000000000000000        0.0000000000000000     
  0.87500000000000000       0.25000000000000000        0.0000000000000000     
   1.0000000000000000       0.25000000000000000        0.0000000000000000     
  0.50000000000000000       0.37500000000000000        0.0000000000000000     
  0.62500000000000000       0.37500000000000000        0.0000000000000000     
  0.75000000000000000       0.37500000000000000        0.0000000000000000     
  0.87500000000000000       0.37500000000000000        0.0000000000000000     
   1.0000000000000000       0.37500000000000000        0.0000000000000000     
  0.50000000000000000       0.50000000000000000        0.0000000000000000     
  0.62500000000000000       0.50000000000000000        0.0000000000000000     
  0.75000000000000000       0.50000000000000000        0.0000000000000000     
  0.87500000000000000       0.50000000000000000        0.0000000000000000     
   1.0000000000000000       0.50000000000000000        0.0000000000000000     
   0.0000000000000000       0.50000000000000000        0.0000000000000000     
  0.12500000000000000       0.50000000000000000        0.0000000000000000     
  0.25000000000000000       0.50000000000000000        0.0000000000000000     
  0.37500000000000000       0.50000000000000000        0.0000000000000000     
  0.50000000000000000       0.50000000000000000        0.0000000000000000     
   0.0000000000000000       0.62500000000000000        0.0000000000000000     
  0.12500000000000000       0.62500000000000000        0.0000000000000000     
  0.25000000000000000       0.62500000000000000        0.0000000000000000     
  0.37500000000000000       0.62500000000000000        0.0000000000000000     
  0.50000000000000000       0.62500000000000000        0.0000000000000000     
   0.0000000000000000       0.75000000000000000        0.0000000000000000     
  0.12500000000000000       0.75000000000000000        0.0000000000000000     
  0.25000000000000000       0.75000000000000000        0.0000000000000000     
  0.37500000000000000       0.75000000000000000        0.0000000000000000     
  0.50000000000000000       0.75000000000000000        0.0000000000000000     
   0.0000000000000000       0.87500000000000000        0.0000000000000000     
  0.12500000000000000       0.87500000000000000        0.0000000000000000     
  0.25000000000000000       0.87500000000000000        0.0000000000000000     
  0.37500000000000000       0.87500000000000000        0.0000000000000000     
  0.50000000000000000       0.87500000000000000        0.0000000000000000     
   0.0000000000000000        1.0000000000000000        0.0000000000000000     
  0.12500000000000000        1.0000000000000000        0.0000000000000000     
  0.25000000000000000        1.0000000000000000        0.0000000000000000     
  0.37500000000000000        1.0000000000000000        0.0000000000000000     
  0.50000000000000000        1.0000000000000000        0.0000000000000000     
  0.50000000000000000       0.50000000000000000        0.0000000000000000     
  0.62500000000000000       0.50000000000000000        0.0000000000000000     
  0.75000000000000000       0.50000000000000000        0.0000000000000000     
  0.87500000000000000       0.50000000000000000        0.0000000000000000     
   1.0000000000000000       0.50000000000000000        0.0000000000000000     
  0.50000000000000000       0.62500000000000000        0.0000000000000000     
  0.62500000000000000       0.62500000000000000        0.0000000000000000     
  0.75000000000000000       0.62500000000000000        0.0000000000000000     
  0.87500000000000000       0.62500000000000000        0.0000000000000000     
   1.0000000000000000       0.62500000000000000        0.0000000000000000     
  0.50000000000000000       0.75000000000000000        0.0000000000000000     
  0.62500000000000000       0.75000000000000000        0.0000000000000000     
  0.75000000000000000       0.75000000000000000        0.0000000000000000     
  0.87500000000000000       0.75000000000000000        0.0000000000000000     
   1.0000000000000000       0.75000000000000000        0.0000000000000000     
  0.50000000000000000       0.87500000000000000        0.0000000000000000     
  0.62500000000000000       0.87500000000000000        0.0000000000000000     
  0.75000000000000000       0.87500000000000000        0.0000000000000000     
  0.87500000000000000       0.87500000000000000        0.0000000000000000     
   1.0000000000000000       0.87500000000000000        0.0000000000000000     
  0.50000000000000000        1.0000000000000000        0.0000000000000000     
  0.62500000000000000        1.0000000000000000        0.0000000000000000     
  0.75000000000000000        1.0000000000000000        0.0000000000000000     
  0.87500000000000000        1.0000000000000000        0.0000000000000000     
   1.0000000000000000        1.0000000000000000        0.0000000000000000     
 </DataArray>
 </Points>
 <Cells>
 <DataArray  type="Int32"  Name="connectivity"  format="ascii">
           0           1           6           5
           1           2           7           6
           2           3           8           7
           3           4           9           8
           5           6          11          10
           6           7          12          11
           7           8          13          12
           8           9          14          13
          10          11          16          15
          11          12          17          16
          12          13          18          17
          13          14          19          18
          15          16          21          20
          16          17          22          21
          17          18          23          22
          18          19          24          23
          25          26          31          30
          26          27          32          31
          27          28          33          32
          28          29          34          33
          30          31          36          35
          31          32          37          36
          32          33          38          37
          33          34          39          38
          35          36          41          40
          36          37          42          41
          37          38          43          42
          38          39          44          43
          40          41          46          45
          41          42          47          46
          42          43          48          47
          43          44          49          48
          50          51          56          55
          51          52          57          56
          52          53          58          57
          53          54          59          58
          55          56          61          60
          56          57          62          61
          57          58          63          62
          58          59          64          63
          60          61          66          65
          61          62          67          66
          62          63          68          67
          63          64          69          68
          65          66          71          70
          66          67          72          71
          67          68          73          72
          68          69          74          73
          75          76          81          80
          76          77          82          81
          77          78          83          82
          78          79          84          83
          80          81          86          85
          81          82          87          86
          82          83          88          87
          83          84          89          88
          85          86          91          90
          86          87          92          91
          87          88          93          92
          88          89          94          93
          90          91          96          95
          91          92          97          96
          92          93          98          97
          93          94          99          98
 </DataArray>
 <DataArray  type="Int32"  Name="offsets"  format="ascii"> 
           4
           8
          12
          16
          20
          24
          28
          32
          36
          40
          44
          48
          52
          56
          60
          64
          68
          72
          76
          80
          84
          88
          92
          96
         100
         104
         108
         112
         116
         120
         124
         128
         132
         136
         140
         144
         148
         152
         156
         160
         164
         168
         172
         176
         180
         184
         188
         192
         196
         200
         204
         208
         212
         216
         220
         224
         228
         232
         236
         240
         244
         248
         252
         256
 </DataArray>
 <DataArray  type="UInt8"  Name="types"  format="ascii">
 9
 9
 9
 9
 9
 9
 9
 9
 9
 9
 9
 9
 9
 9
 9
 9
 9
 9
 9
 9
 9
 9
 9
 9
 9
 9
 9
 9
 9
 9
 9
 9
 9
 9
 9
 9
 9
 9
 9
 9
 9
 9
 9
 9
 9
 9
 9
 9
 9
 9
 9
 9
 9
 9
 9
 9
 9
 9
 9
 9
 9
 9
 9
 9
 </DataArray>
 </Cells> 
 <PointData>
 <DataArray  type="Float64" Name="disp" NumberOfComponents="3" format="ascii">
   0.0000000000000000        0.0000000000000000        0.0000000000000000     
   3.2270016986434892E-003   3.6497812991545817E-003   0.0000000000000000     
   8.9759667732668101E-003   5.6095786939257316E-003   0.0000000000000000     
   1.7246895223869966E-002   5.8793921843134497E-003   0.0000000000000000     
   2.8039787050452954E-002   4.4592217703177360E-003   0.0000000000000000     
   0.0000000000000000        0.0000000000000000        0.0000000000000000     
   3.8639749041380683E-003   3.8896444448432831E-003   0.0000000000000000     
   8.6359136537184043E-003   5.7880896806363127E-003   0.0000000000000000     
   1.4315816248741009E-002   5.6953357073790895E-003   0.0000000000000000     
   2.0903682689205883E-002   3.6113825250716127E-003   0.0000000000000000     
   0.0000000000000000        0.0000000000000000        0.0000000000000000     
   3.9817785892420909E-003   4.0410673286128563E-003   0.0000000000000000     
   7.9192760888706793E-003   5.9911489985297536E-003   0.0000000000000000     
   1.1812492498885767E-002   5.8502450097506912E-003   0.0000000000000000     
   1.5661427819287352E-002   3.6183553622756697E-003   0.0000000000000000     
   0.0000000000000000        0.0000000000000000        0.0000000000000000     
   3.5804127539555558E-003   4.1040499504633021E-003   0.0000000000000000     
   6.8260540787236333E-003   6.2187566476060536E-003   0.0000000000000000     
   9.7369239743042343E-003   6.3441200914282556E-003   0.0000000000000000     
   1.2313022440697357E-002   4.4801402819299070E-003   0.0000000000000000     
   0.0000000000000000        0.0000000000000000        0.0000000000000000     
   2.6598773982784646E-003   4.0785923103946204E-003   0.0000000000000000     
   5.3562476232772690E-003   6.4709126278652135E-003   0.0000000000000000     
   8.0891106749964147E-003   7.1769609524117827E-003   0.0000000000000000     
   1.0858466553435900E-002   6.1967372840343255E-003   0.0000000000000000     
   2.8039787050452954E-002   4.4592217703177360E-003   0.0000000000000000     
   3.8853423855260263E-002   4.3686891473944346E-003   0.0000000000000000     
   4.7186587240536378E-002   8.6274160109993895E-003   0.0000000000000000     
   5.3039277206281300E-002   1.7235402361132600E-002   0.0000000000000000     
   5.6411493752495032E-002   3.0192648197794068E-002   0.0000000000000000     
   2.0903682689205883E-002   3.6113825250716127E-003   0.0000000000000000     
   2.7226933875642217E-002   2.9032895193880446E-003   0.0000000000000000     
   3.2112990708579203E-002   6.9381160760025474E-003   0.0000000000000000     
   3.5561853188016850E-002   1.5715862194915123E-002   0.0000000000000000     
   3.7573521313955138E-002   2.9236527876125764E-002   0.0000000000000000     
   1.5661427819287352E-002   3.6183553622756697E-003   0.0000000000000000     
   1.9053054830511267E-002   2.7466792277903444E-003   0.0000000000000000     
   2.1574346312993365E-002   6.6864157779803731E-003   0.0000000000000000     
   2.3225302266733638E-002   1.5437565012845754E-002   0.0000000000000000     
   2.4005922691732087E-002   2.9000126932386489E-002   0.0000000000000000     
   1.2313022440697357E-002   4.4801402819299070E-003   0.0000000000000000     
   1.4331786719867427E-002   3.8988582726013354E-003   0.0000000000000000     
   1.5570654053778870E-002   7.8723151169328674E-003   0.0000000000000000     
   1.6029624442431688E-002   1.6400510814924510E-002   0.0000000000000000     
   1.5708697885825875E-002   2.9483445366576249E-002   0.0000000000000000     
   1.0858466553435900E-002   6.1967372840343255E-003   0.0000000000000000     
   1.3063129543710680E-002   6.3598266538210154E-003   0.0000000000000000     
   1.4101913930935709E-002   1.0495814092860033E-002   0.0000000000000000     
   1.3974819715110979E-002   1.8604699601151374E-002   0.0000000000000000     
   1.2681846896236500E-002   3.0686483178695035E-002   0.0000000000000000     
   0.0000000000000000        0.0000000000000000        0.0000000000000000     
   2.6598773982784646E-003   4.0785923103946204E-003   0.0000000000000000     
   5.3562476232772690E-003   6.4709126278652135E-003   0.0000000000000000     
   8.0891106749964147E-003   7.1769609524117827E-003   0.0000000000000000     
   1.0858466553435900E-002   6.1967372840343255E-003   0.0000000000000000     
   0.0000000000000000        0.0000000000000000        0.0000000000000000     
   1.7369253024528714E-003   4.3752185718624577E-003   0.0000000000000000     
   4.0405171696292902E-003   7.1887910512671701E-003   0.0000000000000000     
   6.9107756015292562E-003   8.4407174382141355E-003   0.0000000000000000     
   1.0347700598152773E-002   8.1309977327033555E-003   0.0000000000000000     
   0.0000000000000000        0.0000000000000000        0.0000000000000000     
   1.3283092467208327E-003   5.4044528983224639E-003   0.0000000000000000     
   3.4095231648774041E-003   8.8135660297718570E-003   0.0000000000000000     
   6.2436417544697136E-003   1.0227339394348179E-002   0.0000000000000000     
   9.8306650154977616E-003   9.6457729920514310E-003   0.0000000000000000     
   0.0000000000000000        0.0000000000000000        0.0000000000000000     
   1.4340292310823482E-003   7.1662952897746379E-003   0.0000000000000000     
   3.4632656090216088E-003   1.1345237563379275E-002   0.0000000000000000     
   6.0877091338177826E-003   1.2536826820813914E-002   0.0000000000000000     
   9.3073598054708682E-003   1.0741063062078551E-002   0.0000000000000000     
   0.0000000000000000        0.0000000000000000        0.0000000000000000     
   2.0540852555374178E-003   9.6607457462189808E-003   0.0000000000000000     
   4.2017445020619063E-003   1.4783805652089428E-002   0.0000000000000000     
   6.4429777395734649E-003   1.5369179717611337E-002   0.0000000000000000     
   8.7777849680720933E-003   1.1416867942784717E-002   0.0000000000000000     
   1.0858466553435900E-002   6.1967372840343255E-003   0.0000000000000000     
   1.3063129543710680E-002   6.3598266538210154E-003   0.0000000000000000     
   1.4101913930935709E-002   1.0495814092860033E-002   0.0000000000000000     
   1.3974819715110979E-002   1.8604699601151374E-002   0.0000000000000000     
   1.2681846896236500E-002   3.0686483178695035E-002   0.0000000000000000     
   1.0347700598152773E-002   8.1309977327033555E-003   0.0000000000000000     
   1.3179342566459942E-002   8.7825035926049969E-003   0.0000000000000000     
   1.4233751913410876E-002   1.2918106675789224E-002   0.0000000000000000     
   1.3510928639005569E-002   2.0537806982256036E-002   0.0000000000000000     
   1.1010872743244030E-002   3.1641604512005442E-002   0.0000000000000000     
   9.8306650154977616E-003   9.6457729920514310E-003   0.0000000000000000     
   1.2612685052534123E-002   9.8198083101088806E-003   0.0000000000000000     
   1.3031793970151371E-002   1.3500386835747799E-002   0.0000000000000000     
   1.1087991768349509E-002   2.0687508568968192E-002   0.0000000000000000     
   6.7812784471285347E-003   3.1381173509770058E-002   0.0000000000000000     
   9.3073598054708682E-003   1.0741063062078551E-002   0.0000000000000000     
   1.1363157001933223E-002   9.4717408063326753E-003   0.0000000000000000     
   1.0496040101157195E-002   1.2242654572735772E-002   0.0000000000000000     
   6.7060091031427918E-003   1.9053804361287837E-002   0.0000000000000000     
  -6.9359921099903122E-006   2.9905190171988883E-002   0.0000000000000000     
   8.7777849680720933E-003   1.1416867942784717E-002   0.0000000000000000     
   9.4307584146572400E-003   7.7383010812763758E-003   0.0000000000000000     
   6.6264903064283476E-003   9.1449098867531272E-003   0.0000000000000000     
   3.6498064338542067E-004   1.5636694359214973E-002   0.0000000000000000     
  -9.3537705744715441E-003   2.7213654498661914E-002   0.0000000000000000     
 </DataArray>
 </PointData>
 </Piece>
 <Piece  NumberOfPoints="           100 "  NumberOfCells="           64 ">
 <Points>
 <DataArray  type="Float64" NumberOfComponents="3"  format="ascii" >
  0.50000000000000000        0.0000000000000000        0.0000000000000000     
  0.62500000000000000        0.0000000000000000        0.0000000000000000     
  0.75000000000000000        0.0000000000000000        0.0000000000000000     
  0.87500000000000000        0.0000000000000000        0.0000000000000000     
   1.0000000000000000        0.0000000000000000        0.0000000000000000     
  0.50000000000000000       0.12500000000000000        0.0000000000000000     
  0.62500000000000000       0.12500000000000000        0.0000000000000000     
  0.75000000000000000       0.12500000000000000        0.0000000000000000     
  0.87500000000000000       0.12500000000000000        0.0000000000000000     
   1.0000000000000000       0.12500000000000000        0.0000000000000000     
  0.50000000000000000       0.25000000000000000        0.0000000000000000     
  0.62500000000000000       0.25000000000000000        0.0000000000000000     
  0.75000000000000000       0.25000000000000000        0.0000000000000000     
  0.87500000000000000       0.25000000000000000        0.0000000000000000     
   1.0000000000000000       0.25000000000000000        0.0000000000000000     
  0.50000000000000000       0.37500000000000000        0.0000000000000000     
  0.62500000000000000       0.37500000000000000        0.0000000000000000     
  0.75000000000000000       0.37500000000000000        0.0000000000000000     
  0.87500000000000000       0.37500000000000000        0.0000000000000000     
   1.0000000000000000       0.37500000000000000        0.0000000000000000     
  0.50000000000000000       0.50000000000000000        0.0000000000000000     
  0.62500000000000000       0.50000000000000000        0.0000000000000000     
  0.75000000000000000       0.50000000000000000        0.0000000000000000     
  0.87500000000000000       0.50000000000000000        0.0000000000000000     
   1.0000000000000000       0.50000000000000000        0.0000000000000000     
   1.0000000000000000        0.0000000000000000        0.0000000000000000     
   1.1250000000000000        0.0000000000000000        0.0000000000000000     
   1.2500000000000000        0.0000000000000000        0.0000000000000000     
   1.3750000000000000        0.0000000000000000        0.0000000000000000     
   1.5000000000000000        0.0000000000000000        0.0000000000000000     
   1.0000000000000000       0.12500000000000000        0.0000000000000000     
   1.1250000000000000       0.12500000000000000        0.0000000000000000     
   1.2500000000000000       0.12500000000000000        0.0000000000000000     
   1.3750000000000000       0.12500000000000000        0.0000000000000000     
   1.5000000000000000       0.12500000000000000        0.0000000000000000     
   1.0000000000000000       0.25000000000000000        0.0000000000000000     
   1.1250000000000000       0.25000000000000000        0.0000000000000000     
   1.2500000000000000       0.25000000000000000        0.0000000000000000     
   1.3750000000000000       0.25000000000000000        0.0000000000000000     
   1.5000000000000000       0.25000000000000000        0.0000000000000000     
   1.0000000000000000       0.37500000000000000        0.0000000000000000     
   1.1250000000000000       0.37500000000000000        0.0000000000000000     
   1.2500000000000000       0.37500000000000000        0.0000000000000000     
   1.3750000000000000       0.37500000000000000        0.0000000000000000     
   1.5000000000000000       0.37500000000000000        0.0000000000000000     
   1.0000000000000000       0.50000000000000000        0.0000000000000000     
   1.1250000000000000       0.50000000000000000        0.0000000000000000     
   1.2500000000000000       0.50000000000000000        0.0000000000000000     
   1.3750000000000000       0.50000000000000000        0.0000000000000000     
   1.5000000000000000       0.50000000000000000        0.0000000000000000     
  0.50000000000000000       0.50000000000000000        0.0000000000000000     
  0.62500000000000000       0.50000000000000000        0.0000000000000000     
  0.75000000000000000       0.50000000000000000        0.0000000000000000     
  0.87500000000000000       0.50000000000000000        0.0000000000000000     
   1.0000000000000000       0.50000000000000000        0.0000000000000000     
  0.50000000000000000       0.62500000000000000        0.0000000000000000     
  0.62500000000000000       0.62500000000000000        0.0000000000000000     
  0.75000000000000000       0.62500000000000000        0.0000000000000000     
  0.87500000000000000       0.62500000000000000        0.0000000000000000     
   1.0000000000000000       0.62500000000000000        0.0000000000000000     
  0.50000000000000000       0.75000000000000000        0.0000000000000000     
  0.62500000000000000       0.75000000000000000        0.0000000000000000     
  0.75000000000000000       0.75000000000000000        0.0000000000000000     
  0.87500000000000000       0.75000000000000000        0.0000000000000000     
   1.0000000000000000       0.75000000000000000        0.0000000000000000     
  0.50000000000000000       0.87500000000000000        0.0000000000000000     
  0.62500000000000000       0.87500000000000000        0.0000000000000000     
  0.75000000000000000       0.87500000000000000        0.0000000000000000     
  0.87500000000000000       0.87500000000000000        0.0000000000000000     
   1.0000000000000000       0.87500000000000000        0.0000000000000000     
  0.50000000000000000        1.0000000000000000        0.0000000000000000     
  0.62500000000000000        1.0000000000000000        0.0000000000000000     
  0.75000000000000000        1.0000000000000000        0.0000000000000000     
  0.87500000000000000        1.0000000000000000        0.0000000000000000     
   1.0000000000000000        1.0000000000000000        0.0000000000000000     
   1.0000000000000000       0.50000000000000000        0.0000000000000000     
   1.1250000000000000       0.50000000000000000        0.0000000000000000     
   1.2500000000000000       0.50000000000000000        0.0000000000000000     
   1.3750000000000000       0.50000000000000000        0.0000000000000000     
   1.5000000000000000       0.50000000000000000        0.0000000000000000     
   1.0000000000000000       0.62500000000000000        0.0000000000000000     
   1.1250000000000000       0.62500000000000000        0.0000000000000000     
   1.2500000000000000       0.62500000000000000        0.0000000000000000     
   1.3750000000000000       0.62500000000000000        0.0000000000000000     
   1.5000000000000000       0.62500000000000000        0.0000000000000000     
   1.0000000000000000       0.75000000000000000        0.0000000000000000     
   1.1250000000000000       0.75000000000000000        0.0000000000000000     
   1.2500000000000000       0.75000000000000000        0.0000000000000000     
   1.3750000000000000       0.75000000000000000        0.0000000000000000     
   1.5000000000000000       0.75000000000000000        0.0000000000000000     
   1.0000000000000000       0.87500000000000000        0.0000000000000000     
   1.1250000000000000       0.87500000000000000        0.0000000000000000     
   1.2500000000000000       0.87500000000000000        0.0000000000000000     
   1.3750000000000000       0.87500000000000000        0.0000000000000000     
   1.5000000000000000       0.87500000000000000        0.0000000000000000     
   1.0000000000000000        1.0000000000000000        0.0000000000000000     
   1.1250000000000000        1.0000000000000000        0.0000000000000000     
   1.2500000000000000        1.0000000000000000        0.0000000000000000     
   1.3750000000000000        1.0000000000000000        0.0000000000000000     
   1.5000000000000000        1.0000000000000000        0.0000000000000000     
 </DataArray>
 </Points>
 <Cells>
 <DataArray  type="Int32"  Name="connectivity"  format="ascii">
           0           1           6           5
           1           2           7           6
           2           3           8           7
           3           4           9           8
           5           6          11          10
           6           7          12          11
           7           8          13          12
           8           9          14          13
          10          11          16          15
          11          12          17          16
          12          13          18          17
          13          14          19          18
          15          16          21          20
          16          17          22          21
          17          18          23          22
          18          19          24          23
          25          26          31          30
          26          27          32          31
          27          28          33          32
          28          29          34          33
          30          31          36          35
          31          32          37          36
          32          33          38          37
          33          34          39          38
          35          36          41          40