 <VTKFile type="UnstructuredGrid"  version="0.1"   >
 <UnstructuredGrid>
 <Piece  NumberOfPoints="          1600 "  NumberOfCells="         1024 ">
 <Points>
 <DataArray  type="Float64" NumberOfComponents="3"  format="ascii" >
   0.0000000000000000        0.0000000000000000        0.0000000000000000     
   3.1250000000000000E-002   0.0000000000000000        0.0000000000000000     
   6.2500000000000000E-002   0.0000000000000000        0.0000000000000000     
   9.3750000000000000E-002   0.0000000000000000        0.0000000000000000     
  0.12500000000000000        0.0000000000000000        0.0000000000000000     
   0.0000000000000000        3.1250000000000000E-002   0.0000000000000000     
   3.1250000000000000E-002   3.1250000000000000E-002   0.0000000000000000     
   6.2500000000000000E-002   3.1250000000000000E-002   0.0000000000000000     
   9.3750000000000000E-002   3.1250000000000000E-002   0.0000000000000000     
  0.12500000000000000        3.1250000000000000E-002   0.0000000000000000     
   0.0000000000000000        6.2500000000000000E-002   0.0000000000000000     
   3.1250000000000000E-002   6.2500000000000000E-002   0.0000000000000000     
   6.2500000000000000E-002   6.2500000000000000E-002   0.0000000000000000     
   9.3750000000000000E-002   6.2500000000000000E-002   0.0000000000000000     
  0.12500000000000000        6.2500000000000000E-002   0.0000000000000000     
   0.0000000000000000        9.3750000000000000E-002   0.0000000000000000     
   3.1250000000000000E-002   9.3750000000000000E-002   0.0000000000000000     
   6.2500000000000000E-002   9.3750000000000000E-002   0.0000000000000000     
   9.3750000000000000E-002   9.3750000000000000E-002   0.0000000000000000     
  0.12500000000000000        9.3750000000000000E-002   0.0000000000000000     
   0.0000000000000000       0.12500000000000000        0.0000000000000000     
   3.1250000000000000E-002  0.12500000000000000        0.0000000000000000     
   6.2500000000000000E-002  0.12500000000000000        0.0000000000000000     
   9.3750000000000000E-002  0.12500000000000000        0.0000000000000000     
  0.12500000000000000       0.12500000000000000        0.0000000000000000     
  0.12500000000000000        0.0000000000000000        0.0000000000000000     
  0.15625000000000000        0.0000000000000000        0.0000000000000000     
  0.18750000000000000        0.0000000000000000        0.0000000000000000     
  0.21875000000000000        0.0000000000000000        0.0000000000000000     
  0.25000000000000000        0.0000000000000000        0.0000000000000000     
  0.12500000000000000        3.1250000000000000E-002   0.0000000000000000     
  0.15625000000000000        3.1250000000000000E-002   0.0000000000000000     
  0.18750000000000000        3.1250000000000000E-002   0.0000000000000000     
  0.21875000000000000        3.1250000000000000E-002   0.0000000000000000     
  0.25000000000000000        3.1250000000000000E-002   0.0000000000000000     
  0.12500000000000000        6.2500000000000000E-002   0.0000000000000000     
  0.15625000000000000        6.2500000000000000E-002   0.0000000000000000     
  0.18750000000000000        6.2500000000000000E-002   0.0000000000000000     
  0.21875000000000000        6.2500000000000000E-002   0.0000000000000000     
  0.25000000000000000        6.2500000000000000E-002   0.0000000000000000     
  0.12500000000000000        9.3750000000000000E-002   0.0000000000000000     
  0.15625000000000000        9.3750000000000000E-002   0.0000000000000000     
  0.18750000000000000        9.3750000000000000E-002   0.0000000000000000     
  0.21875000000000000        9.3750000000000000E-002   0.0000000000000000     
  0.25000000000000000        9.3750000000000000E-002   0.0000000000000000     
  0.12500000000000000       0.12500000000000000        0.0000000000000000     
  0.15625000000000000       0.12500000000000000        0.0000000000000000     
  0.18750000000000000       0.12500000000000000        0.0000000000000000     
  0.21875000000000000       0.12500000000000000        0.0000000000000000     
  0.25000000000000000       0.12500000000000000        0.0000000000000000     
  0.25000000000000000        0.0000000000000000        0.0000000000000000     
  0.28125000000000000        0.0000000000000000        0.0000000000000000     
  0.31250000000000000        0.0000000000000000        0.0000000000000000     
  0.34375000000000000        0.0000000000000000        0.0000000000000000     
  0.37500000000000000        0.0000000000000000        0.0000000000000000     
  0.25000000000000000        3.1250000000000000E-002   0.0000000000000000     
  0.28125000000000000        3.1250000000000000E-002   0.0000000000000000     
  0.31250000000000000        3.1250000000000000E-002   0.0000000000000000     
  0.34375000000000000        3.1250000000000000E-002   0.0000000000000000     
  0.37500000000000000        3.1250000000000000E-002   0.0000000000000000     
  0.25000000000000000        6.2500000000000000E-002   0.0000000000000000     
  0.28125000000000000        6.2500000000000000E-002   0.0000000000000000     
  0.31250000000000000        6.2500000000000000E-002   0.0000000000000000     
  0.34375000000000000        6.2500000000000000E-002   0.0000000000000000     
  0.37500000000000000        6.2500000000000000E-002   0.0000000000000000     
  0.25000000000000000        9.3750000000000000E-002   0.0000000000000000     
  0.28125000000000000        9.3750000000000000E-002   0.0000000000000000     
  0.31250000000000000        9.3750000000000000E-002   0.0000000000000000     
  0.34375000000000000        9.3750000000000000E-002   0.0000000000000000     
  0.37500000000000000        9.3750000000000000E-002   0.0000000000000000     
  0.25000000000000000       0.12500000000000000        0.0000000000000000     
  0.28125000000000000       0.12500000000000000        0.0000000000000000     
  0.31250000000000000       0.12500000000000000        0.0000000000000000     
  0.34375000000000000       0.12500000000000000        0.0000000000000000     
  0.37500000000000000       0.12500000000000000        0.0000000000000000     
  0.37500000000000000        0.0000000000000000        0.0000000000000000     
  0.40625000000000000        0.0000000000000000        0.0000000000000000     
  0.43750000000000000        0.0000000000000000        0.0000000000000000     
  0.46875000000000000        0.0000000000000000        0.0000000000000000     
  0.50000000000000000        0.0000000000000000        0.0000000000000000     
  0.37500000000000000        3.1250000000000000E-002   0.0000000000000000     
  0.40625000000000000        3.1250000000000000E-002   0.0000000000000000     
  0.43750000000000000        3.1250000000000000E-002   0.0000000000000000     
  0.46875000000000000        3.1250000000000000E-002   0.0000000000000000     
  0.50000000000000000        3.1250000000000000E-002   0.0000000000000000     
  0.37500000000000000        6.2500000000000000E-002   0.0000000000000000     
  0.40625000000000000        6.2500000000000000E-002   0.0000000000000000     
  0.43750000000000000        6.2500000000000000E-002   0.0000000000000000     
  0.46875000000000000        6.2500000000000000E-002   0.0000000000000000     
  0.50000000000000000        6.2500000000000000E-002   0.0000000000000000     
  0.37500000000000000        9.3750000000000000E-002   0.0000000000000000     
  0.40625000000000000        9.3750000000000000E-002   0.0000000000000000     
  0.43750000000000000        9.3750000000000000E-002   0.0000000000000000     
  0.46875000000000000        9.3750000000000000E-002   0.0000000000000000     
  0.50000000000000000        9.3750000000000000E-002   0.0000000000000000     
  0.37500000000000000       0.12500000000000000        0.0000000000000000     
  0.40625000000000000       0.12500000000000000        0.0000000000000000     
  0.43750000000000000       0.12500000000000000        0.0000000000000000     
  0.46875000000000000       0.12500000000000000        0.0000000000000000     
  0.50000000000000000       0.12500000000000000        0.0000000000000000     
  0.50000000000000000        0.0000000000000000        0.0000000000000000     
  0.53125000000000000        0.0000000000000000        0.0000000000000000     
  0.56250000000000000        0.0000000000000000        0.0000000000000000     
  0.59375000000000000        0.0000000000000000        0.0000000000000000     
  0.62500000000000000        0.0000000000000000        0.0000000000000000     
  0.50000000000000000        3.1250000000000000E-002   0.0000000000000000     
  0.53125000000000000        3.1250000000000000E-002   0.0000000000000000     
  0.56250000000000000        3.1250000000000000E-002   0.0000000000000000     
  0.59375000000000000        3.1250000000000000E-002   0.0000000000000000     
  0.62500000000000000        3.1250000000000000E-002   0.0000000000000000     
  0.50000000000000000        6.2500000000000000E-002   0.0000000000000000     
  0.53125000000000000        6.2500000000000000E-002   0.0000000000000000     
  0.56250000000000000        6.2500000000000000E-002   0.0000000000000000     
  0.59375000000000000        6.2500000000000000E-002   0.0000000000000000     
  0.62500000000000000        6.2500000000000000E-002   0.0000000000000000     
  0.50000000000000000        9.3750000000000000E-002   0.0000000000000000     
  0.53125000000000000        9.3750000000000000E-002   0.0000000000000000     
  0.56250000000000000        9.3750000000000000E-002   0.0000000000000000     
  0.59375000000000000        9.3750000000000000E-002   0.0000000000000000     
  0.62500000000000000        9.3750000000000000E-002   0.0000000000000000     
  0.50000000000000000       0.12500000000000000        0.0000000000000000     
  0.53125000000000000       0.12500000000000000        0.0000000000000000     
  0.56250000000000000       0.12500000000000000        0.0000000000000000     
[...]
 <PointData>
 <DataArray  type="Float64" Name="disp" NumberOfComponents="3" format="ascii">
   0.0000000000000000        0.0000000000000000        0.0000000000000000     
   6.0952930037950570E-003   3.7910030982210639E-003   0.0000000000000000     
   1.1665839006910299E-002   7.3239013020523968E-003   0.0000000000000000     
   1.6711638009345723E-002   1.0598694611493998E-002   0.0000000000000000     
   2.1232690011101334E-002   1.3615383026545868E-002   0.0000000000000000     
   0.0000000000000000        0.0000000000000000        0.0000000000000000     
   4.8912889608546490E-003   3.0217953386819348E-003   0.0000000000000000     
   9.5744669424870400E-003   6.0594607701641868E-003   0.0000000000000000     
   1.4049533944897177E-002   9.1129962944467569E-003   0.0000000000000000     
   1.8316489968085055E-002   1.2182401911529646E-002   0.0000000000000000     
   0.0000000000000000        0.0000000000000000        0.0000000000000000     
   3.9541321540623878E-003   2.4241192267091161E-003   0.0000000000000000     
   7.9119122864734805E-003   5.0610573301358699E-003   0.0000000000000000     
   1.1873340397233281E-002   7.9108143102802619E-003   0.0000000000000000     
   1.5838416486341787E-002   1.0973390167142293E-002   0.0000000000000000     
   0.0000000000000000        0.0000000000000000        0.0000000000000000     
   3.2838225834182738E-003   1.9979747623026086E-003   0.0000000000000000     
   6.6781750388696191E-003   4.3286909819674471E-003   0.0000000000000000     
   1.0183057366354036E-002   6.9921486589945162E-003   0.0000000000000000     
   1.3798469565871527E-002   9.9883477933838151E-003   0.0000000000000000     
   0.0000000000000000        0.0000000000000000        0.0000000000000000     
   2.8803602489223066E-003   1.7433619454624125E-003   0.0000000000000000     
   5.8732551996754558E-003   3.8623617256589174E-003   0.0000000000000000     
   8.9786848522594442E-003   6.3569993405895153E-003   0.0000000000000000     
   1.2196649206674277E-002   9.2272747902542064E-003   0.0000000000000000     
   2.1232690011101334E-002   1.3615383026545868E-002   0.0000000000000000     
   2.5440327384246501E-002   1.6606208574262340E-002   0.0000000000000000     
   2.9545882500850600E-002   1.9803413281697744E-002   0.0000000000000000     
   3.3549355360913628E-002   2.3206997148852087E-002   0.0000000000000000     
   3.7450745964435588E-002   2.6816960175725366E-002   0.0000000000000000     
   1.8316489968085055E-002   1.2182401911529646E-002   0.0000000000000000     
   2.2412702548109315E-002   1.5336680604496625E-002   0.0000000000000000     
   2.6375539221028598E-002   1.8644835356431473E-002   0.0000000000000000     
   3.0204999986842902E-002   2.2106866167334191E-002   0.0000000000000000     
   3.3901084845552223E-002   2.5722773037204782E-002   0.0000000000000000     
   1.5838416486341787E-002   1.0973390167142293E-002   0.0000000000000000     
   1.9734946495527397E-002   1.4207492181560080E-002   0.0000000000000000     
   2.3490736366518522E-002   1.7571827634371741E-002   0.0000000000000000     
   2.7105786099315153E-002   2.1066396525577277E-002   0.0000000000000000     
   3.0580095693917300E-002   2.4691198855176684E-002   0.0000000000000000     
   1.3798469565871527E-002   9.9883477933838151E-003   0.0000000000000000     
   1.7407059226500751E-002   1.3218643305452703E-002   0.0000000000000000     
   2.0891473937320375E-002   1.6584390115518544E-002   0.0000000000000000     
   2.4251713698330391E-002   2.0085588223581335E-002   0.0000000000000000     
   2.7487778509530800E-002   2.3722237629641079E-002   0.0000000000000000     
   1.2196649206674277E-002   9.2272747902542064E-003   0.0000000000000000     
   1.5429040741029371E-002   1.2370133976174496E-002   0.0000000000000000     
   1.8577751933434149E-002   1.5682522799871881E-002   0.0000000000000000     
   2.1642782783888610E-002   1.9164441261346372E-002   0.0000000000000000     
   2.4624133292392755E-002   2.2815889360597957E-002   0.0000000000000000     
   3.7450745964435588E-002   2.6816960175725366E-002   0.0000000000000000     
   4.1259754857025960E-002   3.0626007546323834E-002   0.0000000000000000     
   4.4986082584294235E-002   3.4626844444653748E-002   0.0000000000000000     
   4.8629729146240412E-002   3.8819470870715113E-002   0.0000000000000000     
   5.2190694542864499E-002   4.3203886824507924E-002   0.0000000000000000     
   3.3901084845552223E-002   2.5722773037204782E-002   0.0000000000000000     
   3.7490941049708147E-002   2.9520573796184460E-002   0.0000000000000000     
   4.1001715851862248E-002   3.3528286274414468E-002   0.0000000000000000     
   4.4433409252014520E-002   3.7745910471894781E-002   0.0000000000000000     
   4.7786021250164970E-002   4.2173446388625413E-002   0.0000000000000000     
   3.0580095693917300E-002   2.4691198855176684E-002   0.0000000000000000     
   3.3946090866884764E-002   2.8491506990468471E-002   0.0000000000000000     
   3.7236197334777357E-002   3.2512593298751120E-002   0.0000000000000000     
   4.0450415097595102E-002   3.6754457780024653E-002   0.0000000000000000     
   4.3588744155337963E-002   4.1217100434289049E-002   0.0000000000000000     
   2.7487778509530800E-002   2.3722237629641079E-002   0.0000000000000000     
   3.0625204308555809E-002   2.7538807129175846E-002   0.0000000000000000     
   3.3689527033039589E-002   3.1579765517663727E-002   0.0000000000000000     
   3.6680746682982157E-002   3.5845112795104724E-002   0.0000000000000000     
   3.9598863258383479E-002   4.0334848961498818E-002   0.0000000000000000     
   2.4624133292392755E-002   2.2815889360597957E-002   0.0000000000000000     
   2.7528281374721290E-002   2.6662474212306608E-002   0.0000000000000000     
   3.0361704946648933E-002   3.0729802931152284E-002   0.0000000000000000     
   3.3124404008175679E-002   3.5017875517134998E-002   0.0000000000000000     
   3.5816378559301525E-002   3.9526691970254726E-002   0.0000000000000000     
   5.2190694542864499E-002   4.3203886824507924E-002   0.0000000000000000     
   5.5650230997109362E-002   4.7789538727294981E-002   0.0000000000000000     
   5.8989590731917917E-002   5.2585873000339074E-002   0.0000000000000000     
   6.2208773747290128E-002   5.7592889643640205E-002   0.0000000000000000     
   6.5307780043226016E-002   6.2810588657198380E-002   0.0000000000000000     
   4.7786021250164970E-002   4.2173446388625413E-002   0.0000000000000000     
   5.1040198604165282E-002   4.6806351934895934E-002   0.0000000000000000     
   5.4176588071867142E-002   5.1640085020995909E-002   0.0000000000000000     
   5.7195189653270549E-002   5.6674645646925328E-002   0.0000000000000000     
   6.0096003348375511E-002   6.1910033812684194E-002   0.0000000000000000     
   4.3588744155337963E-002   4.1217100434289049E-002   0.0000000000000000     
   4.6632841971648679E-002   4.5887162371127395E-002   0.0000000000000000     
   4.9564366010169961E-002   5.0751284700122745E-002   0.0000000000000000     
   5.2383316270901793E-002   5.5809467421275107E-002   0.0000000000000000     
   5.5089692753844212E-002   6.1061710534584486E-002   0.0000000000000000     
   3.9598863258383479E-002   4.0334848961498818E-002   0.0000000000000000     
   4.2428161099559561E-002   4.5031970035989334E-002   0.0000000000000000     
   4.5152924546826366E-002   4.9919472037719577E-002   0.0000000000000000     
   4.7773153600183894E-002   5.4997354966689553E-002   0.0000000000000000     
   5.0288848259632139E-002   6.0265618822899256E-002   0.0000000000000000     
   3.5816378559301525E-002   3.9526691970254726E-002   0.0000000000000000     
   3.8426155987897934E-002   4.4240774929481766E-002   0.0000000000000000     
   4.0942263681836358E-002   4.9144647033786411E-002   0.0000000000000000     
   4.3364701641116811E-002   5.4238308283168647E-002   0.0000000000000000     
   4.5693469865739286E-002   5.9521758677628496E-002   0.0000000000000000     
   6.5307780043226016E-002   6.2810588657198380E-002   0.0000000000000000     
   6.8328941987540512E-002   6.8227404224873667E-002   0.0000000000000000     
   7.1314591948048525E-002   7.3831770530526086E-002   0.0000000000000000     
   7.4264729924750084E-002   7.9623687574155694E-002   0.0000000000000000     
   7.7179355917645159E-002   8.5603155355762461E-002   0.0000000000000000     
   6.0096003348375511E-002   6.1910033812684194E-002   0.0000000000000000     
   6.2921536512221099E-002   6.7339938456690715E-002   0.0000000000000000     
   6.5714296499846461E-002   7.2958048517363080E-002   0.0000000000000000     
   6.8474283311251535E-002   7.8764363994701297E-002   0.0000000000000000     
   7.1201496946436377E-002   8.4758884888705366E-002   0.0000000000000000     
   5.5089692753844212E-002   6.1061710534584486E-002   0.0000000000000000     
   5.7724539409804286E-002   6.6506282454037183E-002   0.0000000000000000     
   6.0328900189589148E-002   7.2141451593619538E-002   0.0000000000000000     
   6.2902775093198776E-002   7.7967217953331530E-002   0.0000000000000000     
   6.5446164120633185E-002   8.3983581533173146E-002   0.0000000000000000     
   5.0288848259632139E-002   6.0265618822899256E-002   0.0000000000000000     
   5.2737950680290066E-002   6.5726436216913084E-002   0.0000000000000000     
   5.5158403017276612E-002   7.1381979759295472E-002   0.0000000000000000     
   5.7550205270591785E-002   7.7232249450046378E-002   0.0000000000000000     
   5.9913357440235578E-002   8.3277245289165816E-002   0.0000000000000000     
   4.5693469865739286E-002   5.9521758677628496E-002   0.0000000000000000     
   4.7961770323678418E-002   6.5000399745318405E-002   0.0000000000000000     
   5.0202804982908841E-002   7.0679633014390841E-002   0.0000000000000000     
   5.2416573843430549E-002   7.6559458484845841E-002   0.0000000000000000     
   5.4603076905243568E-002   8.2639876156683362E-002   0.0000000000000000     
   7.7179355917645159E-002   8.5603155355762461E-002   0.0000000000000000     
   8.0011580709095934E-002   9.1751066448703483E-002   0.0000000000000000     
   8.2714515081464560E-002   9.8048313426335798E-002   0.0000000000000000     
   8.5288159034751024E-002  0.10449489628865952        0.0000000000000000     
   8.7732512568955354E-002  0.11109081503567453        0.0000000000000000     
   7.1201496946436377E-002   8.4758884888705366E-002   0.0000000000000000     
   7.3852342271386789E-002   9.0925820909088531E-002   0.0000000000000000     
   7.6383224152088619E-002   9.7249381765564039E-002   0.0000000000000000     
   7.8794142588541838E-002  0.10372956745813190        0.0000000000000000     
   8.1085097580746460E-002  0.11036637798679211        0.0000000000000000     
   6.5446164120633185E-002   8.3983581533173146E-002   0.0000000000000000     
   6.7918625652790249E-002   9.0175679745556458E-002   0.0000000000000000     
   7.0279718070567834E-002   9.6528650002893485E-002   0.0000000000000000     
   7.2529441373965955E-002  0.10304249230518421        0.0000000000000000     
   7.4667795562984612E-002  0.10971720665242861        0.0000000000000000     
   5.9913357440235578E-002   8.3277245289165816E-002   0.0000000000000000     
   6.2210430853306298E-002   8.9500642958107238E-002   0.0000000000000000     
   6.4403996836902233E-002   9.5886118138324081E-002   0.0000000000000000     
   6.6494055391023391E-002  0.10243367082981637        0.0000000000000000     
   6.8480606515669770E-002  0.10914330103258407        0.0000000000000000     
   5.4603076905243568E-002   8.2639876156683362E-002   0.0000000000000000     
   5.6727757872934957E-002   8.8900710546740896E-002   0.0000000000000000     
   5.8756060451091822E-002   9.5321786171855924E-002   0.0000000000000000     
   6.0687984639714171E-002  0.10190310303202844        0.0000000000000000     
   6.2523530438801989E-002  0.10864466112725846        0.0000000000000000     
   8.7732512568955354E-002  0.11109081503567453        0.0000000000000000     
   9.0003196191065393E-002  0.11779713497777569        0.0000000000000000     
   9.2055830408068987E-002  0.12457492142535785        0.0000000000000000     
   9.3890415219966161E-002  0.13142417437842099        0.0000000000000000     
   9.5506950626756903E-002  0.13834489383696513        0.0000000000000000     
   8.1085097580746460E-002  0.11036637798679211        0.0000000000000000     
   8.3212397786375611E-002  0.11711854747323673        0.0000000000000000     
   8.5132351863102362E-002  0.12394481003915779        0.0000000000000000     
   8.6844959810926742E-002  0.13084516568455534        0.0000000000000000     
   8.8350221629848721E-002  0.13781961440942936        0.0000000000000000     
   7.4667795562984612E-002  0.10971720665242861        0.0000000000000000     
   7.6652612348854288E-002  0.11650785865387034        0.0000000000000000     
   7.8441723442805478E-002  0.12336951391875291        0.0000000000000000     
   8.0035128844838169E-002  0.13030217244707637        0.0000000000000000     
   8.1432828554952388E-002  0.13730583423884063        0.0000000000000000     
   6.8480606515669770E-002  0.10914330103258407        0.0000000000000000     
   7.0323839878501410E-002  0.11596506851967657        0.0000000000000000     
   7.1983945147178305E-002  0.12284903306414321        0.0000000000000000     
   7.3460922321700498E-002  0.12979519466598399        0.0000000000000000     
   7.4754771402067932E-002  0.13680355332519897        0.0000000000000000     
   6.2523530438801989E-002  0.10864466112725846        0.0000000000000000     
   6.4226080375317005E-002  0.11549017707065540        0.0000000000000000     
   6.5759016976220885E-002  0.12238336747532869        0.0000000000000000     
   6.7122340241513673E-002  0.12932423234127835        0.0000000000000000     
   6.8316050171195339E-002  0.13631277166850433        0.0000000000000000     
   9.5506950626756903E-002  0.13834489383696513        0.0000000000000000     
   9.7293827042105888E-002  0.14560891158959036        0.0000000000000000     
   9.9639434879677774E-002  0.15348805942489677        0.0000000000000000     
  0.10254377413947255       0.16198233734288436        0.0000000000000000     
  0.10600684482149024       0.17109174534355315        0.0000000000000000     
   8.8350221629848721E-002  0.13781961440942936        0.0000000000000000     
   8.9952304701071031E-002  0.14503442975248018        0.0000000000000000     
   9.1955376405796402E-002  0.15265588525240811        0.0000000000000000     
   9.4359436744024805E-002  0.16068398090921321        0.0000000000000000     
   9.7164485715756241E-002  0.16911871672289541        0.0000000000000000     
   8.1432828554952388E-002  0.13730583423884063        0.0000000000000000     
   8.2879038031858726E-002  0.14449348861676853        0.0000000000000000     
   8.4617972734267785E-002  0.15197812490358278        0.0000000000000000     
   8.6649632662179579E-002  0.15975974309928340        0.0000000000000000     
   8.8974017815594109E-002  0.16783834320387037        0.0000000000000000     
   7.4754771402067932E-002  0.13680355332519897        0.0000000000000000     
   7.6074027034468999E-002  0.14398608818245542        0.0000000000000000     
   7.7627223865091979E-002  0.15145477837842078        0.0000000000000000     
   7.9414361893936927E-002  0.15920962391309493        0.0000000000000000     
   8.1435441121003802E-002  0.16725062478647798        0.0000000000000000     
   6.8316050171195339E-002  0.13631277166850433        0.0000000000000000     
   6.9537271708901796E-002  0.14351222844954084        0.0000000000000000     
   7.0983129798268971E-002  0.15108584567692201        0.0000000000000000     
   7.2653624439296821E-002  0.15903362335064780        0.0000000000000000     
   7.4548755631985361E-002  0.16735556147071828        0.0000000000000000     
   0.0000000000000000        0.0000000000000000        0.0000000000000000     
   2.8803602489223066E-003   1.7433619454624125E-003   0.0000000000000000     
   5.8732551996754558E-003   3.8623617256589174E-003   0.0000000000000000     
   8.9786848522594442E-003   6.3569993405895153E-003   0.0000000000000000     
   1.2196649206674277E-002   9.2272747902542064E-003   0.0000000000000000     
   0.0000000000000000        0.0000000000000000        0.0000000000000000     
   2.6101576338463531E-003   1.5875199287899533E-003   0.0000000000000000     
   5.2895418140470399E-003   3.5546268249010663E-003   0.0000000000000000     
   8.0381525406020594E-003   5.9013206883333381E-003   0.0000000000000000     
   1.0855989813511413E-002   8.6276015190867705E-003   0.0000000000000000     
   0.0000000000000000        0.0000000000000000        0.0000000000000000     
   2.3396272214622803E-003   1.4576878648866565E-003   0.0000000000000000     
   4.7194239271404256E-003   3.2980435433846754E-003   0.0000000000000000     
   7.1393901170344366E-003   5.5210670354940566E-003   0.0000000000000000     
   9.5995257911443126E-003   8.1267583412148008E-003   0.0000000000000000     
   0.0000000000000000        0.0000000000000000        0.0000000000000000     
   2.0687690117700869E-003   1.3538657537525223E-003   0.0000000000000000     
   4.1629015389556111E-003   3.0926118811097467E-003   0.0000000000000000     
   6.2823975815565749E-003   5.2162383820716718E-003   0.0000000000000000     
   8.4272571395729769E-003   7.7247452566382999E-003   0.0000000000000000     
   0.0000000000000000        0.0000000000000000        0.0000000000000000     
   1.7975830047697742E-003   1.2760535953875508E-003   0.0000000000000000     
   3.6199746494925997E-003   2.9383318380762783E-003   0.0000000000000000     
   5.4671749341684743E-003   4.9868347280661836E-003   0.0000000000000000     
   7.3391838587974004E-003   7.4215622653572653E-003   0.0000000000000000     
   1.2196649206674277E-002   9.2272747902542064E-003   0.0000000000000000     
   1.5429040741029371E-002   1.2370133976174496E-002   0.0000000000000000     
   1.8577751933434149E-002   1.5682522799871881E-002   0.0000000000000000     
   2.1642782783888610E-002   1.9164441261346372E-002   0.0000000000000000     
   2.4624133292392755E-002   2.2815889360597957E-002   0.0000000000000000     
   1.0855989813511413E-002   8.6276015190867705E-003   0.0000000000000000     
   1.3689144039067498E-002   1.1650051434347365E-002   0.0000000000000000     
   1.6483705623562713E-002   1.4885252551301126E-002   0.0000000000000000     
   1.9239674566997059E-002   1.8333204869948057E-002   0.0000000000000000     
   2.1957050869370529E-002   2.1993908390288149E-002   0.0000000000000000     
   9.5995257911443126E-003   8.1267583412148008E-003   0.0000000000000000     
   1.2075622120569370E-002   1.1046482920593225E-002   0.0000000000000000     
   1.4543470276408926E-002   1.4211606233675643E-002   0.0000000000000000     
   1.7003070258662979E-002   1.7622128280462061E-002   0.0000000000000000     
   1.9454422067331528E-002   2.1278049060952473E-002   0.0000000000000000     
   8.4272571395729769E-003   7.7247452566382999E-003   0.0000000000000000     
   1.0588474985534989E-002   1.0559428434912071E-002   0.0000000000000000     
   1.2757045891972789E-002   1.3661583846995435E-002   0.0000000000000000     
   1.4932969858886379E-002   1.7031211492888384E-002   0.0000000000000000     
   1.7116246886275752E-002   2.0668311372590925E-002   0.0000000000000000     
   7.3391838587974004E-003   7.4215622653572653E-003   0.0000000000000000     
   9.2277026339643523E-003   1.0188887977303912E-002   0.0000000000000000     
   1.1124432470254303E-002   1.3235185391260500E-002   0.0000000000000000     
   1.3029373367667251E-002   1.6560454507227037E-002   0.0000000000000000     
   1.4942525326203202E-002   2.0164695325203517E-002   0.0000000000000000     
   2.4624133292392755E-002   2.2815889360597957E-002   0.0000000000000000     
   2.7528281374721290E-002   2.6662474212306608E-002   0.0000000000000000     