 <VTKFile type="UnstructuredGrid"  version="0.1"   >
 <UnstructuredGrid>
 <Piece  NumberOfPoints="          1600 "  NumberOfCells="         1024 ">
 <Points>
 <DataArray  type="Float64" NumberOfComponents="3"  format="ascii" >
   0.0000000000000000        0.0000000000000000        0.0000000000000000     
   3.1250000000000000E-002   0.0000000000000000        0.0000000000000000     
   6.2500000000000000E-002   0.0000000000000000        0.0000000000000000     
   9.3750000000000000E-002   0.0000000000000000        0.0000000000000000     
  0.12500000000000000        0.0000000000000000        0.0000000000000000     
   0.0000000000000000        3.1250000000000000E-002   0.0000000000000000     
   3.1250000000000000E-002   3.1250000000000000E-002   0.0000000000000000     
   6.2500000000000000E-002   3.1250000000000000E-002   0.0000000000000000     
   9.3750000000000000E-002   3.1250000000000000E-002   0.0000000000000000     
  0.12500000000000000        3.1250000000000000E-002   0.0000000000000000     
   0.0000000000000000        6.2500000000000000E-002   0.0000000000000000     
   3.1250000000000000E-002   6.2500000000000000E-002   0.0000000000000000     
   6.2500000000000000E-002   6.2500000000000000E-002   0.0000000000000000     
   9.3750000000000000E-002   6.2500000000000000E-002   0.0000000000000000     
  0.12500000000000000        6.2500000000000000E-002   0.0000000000000000     
   0.0000000000000000        9.3750000000000000E-002   0.0000000000000000     
   3.1250000000000000E-002   9.3750000000000000E-002   0.0000000000000000     
   6.2500000000000000E-002   9.3750000000000000E-002   0.0000000000000000     
   9.3750000000000000E-002   9.3750000000000000E-002   0.0000000000000000     
  0.12500000000000000        9.3750000000000000E-002   0.0000000000000000     
   0.0000000000000000       0.12500000000000000        0.0000000000000000     
   3.1250000000000000E-002  0.12500000000000000        0.0000000000000000     
   6.2500000000000000E-002  0.12500000000000000        0.0000000000000000     
   9.3750000000000000E-002  0.12500000000000000        0.0000000000000000     
  0.12500000000000000       0.12500000000000000        0.0000000000000000     
  0.12500000000000000        0.0000000000000000        0.0000000000000000     
  0.15625000000000000        0.0000000000000000        0.0000000000000000     
  0.18750000000000000        0.0000000000000000        0.0000000000000000     
  0.21875000000000000        0.0000000000000000        0.0000000000000000     
  0.25000000000000000        0.0000000000000000        0.0000000000000000     
  0.12500000000000000        3.1250000000000000E-002   0.0000000000000000     
  0.15625000000000000        3.1250000000000000E-002   0.0000000000000000     
  0.18750000000000000        3.1250000000000000E-002   0.0000000000000000     
  0.21875000000000000        3.1250000000000000E-002   0.0000000000000000     
  0.25000000000000000        3.1250000000000000E-002   0.0000000000000000     
  0.12500000000000000        6.2500000000000000E-002   0.0000000000000000     
  0.15625000000000000        6.2500000000000000E-002   0.0000000000000000     
  0.18750000000000000        6.2500000000000000E-002   0.0000000000000000     
  0.21875000000000000        6.2500000000000000E-002   0.0000000000000000     
  0.25000000000000000        6.2500000000000000E-002   0.0000000000000000     
  0.12500000000000000        9.3750000000000000E-002   0.0000000000000000     
  0.15625000000000000        9.3750000000000000E-002   0.0000000000000000     
  0.18750000000000000        9.3750000000000000E-002   0.0000000000000000     
  0.21875000000000000        9.3750000000000000E-002   0.0000000000000000     
  0.25000000000000000        9.3750000000000000E-002   0.0000000000000000     
  0.12500000000000000       0.12500000000000000        0.0000000000000000     
  0.15625000000000000       0.12500000000000000        0.0000000000000000     
  0.18750000000000000       0.12500000000000000        0.0000000000000000     
  0.21875000000000000       0.12500000000000000        0.0000000000000000     
  0.25000000000000000       0.12500000000000000        0.0000000000000000     
  0.25000000000000000        0.0000000000000000        0.0000000000000000     
  0.28125000000000000        0.0000000000000000        0.0000000000000000     
  0.31250000000000000        0.0000000000000000        0.0000000000000000     
  0.34375000000000000        0.0000000000000000        0.0000000000000000     
  0.37500000000000000        0.0000000000000000        0.0000000000000000     
  0.25000000000000000        3.1250000000000000E-002   0.0000000000000000     
  0.28125000000000000        3.1250000000000000E-002   0.0000000000000000     
  0.31250000000000000        3.1250000000000000E-002   0.0000000000000000     
  0.34375000000000000        3.1250000000000000E-002   0.0000000000000000     
  0.37500000000000000        3.1250000000000000E-002   0.0000000000000000     
  0.25000000000000000        6.2500000000000000E-002   0.0000000000000000     
  0.28125000000000000        6.2500000000000000E-002   0.0000000000000000     
  0.31250000000000000        6.2500000000000000E-002   0.0000000000000000     
  0.34375000000000000        6.2500000000000000E-002   0.0000000000000000     
  0.37500000000000000        6.2500000000000000E-002   0.0000000000000000     
  0.25000000000000000        9.3750000000000000E-002   0.0000000000000000     
  0.28125000000000000        9.3750000000000000E-002   0.0000000000000000     
  0.31250000000000000        9.3750000000000000E-002   0.0000000000000000     
  0.34375000000000000        9.3750000000000000E-002   0.0000000000000000     
  0.37500000000000000        9.3750000000000000E-002   0.0000000000000000     
  0.25000000000000000       0.12500000000000000        0.0000000000000000     
  0.28125000000000000       0.12500000000000000        0.0000000000000000     
  0.31250000000000000       0.12500000000000000        0.0000000000000000     
  0.34375000000000000       0.12500000000000000        0.0000000000000000     
  0.37500000000000000       0.12500000000000000        0.0000000000000000     
  0.37500000000000000        0.0000000000000000        0.0000000000000000     
  0.40625000000000000        0.0000000000000000        0.0000000000000000     
  0.43750000000000000        0.0000000000000000        0.0000000000000000     
  0.46875000000000000        0.0000000000000000        0.0000000000000000     
  0.50000000000000000        0.0000000000000000        0.0000000000000000     
  0.37500000000000000        3.1250000000000000E-002   0.0000000000000000     
  0.40625000000000000        3.1250000000000000E-002   0.0000000000000000     
  0.43750000000000000        3.1250000000000000E-002   0.0000000000000000     
  0.46875000000000000        3.1250000000000000E-002   0.0000000000000000     
  0.50000000000000000        3.1250000000000000E-002   0.0000000000000000     
  0.37500000000000000        6.2500000000000000E-002   0.0000000000000000     
  0.40625000000000000        6.2500000000000000E-002   0.0000000000000000     
  0.43750000000000000        6.2500000000000000E-002   0.0000000000000000     
  0.46875000000000000        6.2500000000000000E-002   0.0000000000000000     
  0.50000000000000000        6.2500000000000000E-002   0.0000000000000000     
  0.37500000000000000        9.3750000000000000E-002   0.0000000000000000     
  0.40625000000000000        9.3750000000000000E-002   0.0000000000000000     
  0.43750000000000000        9.3750000000000000E-002   0.0000000000000000     
  0.46875000000000000        9.3750000000000000E-002   0.0000000000000000     
  0.50000000000000000        9.3750000000000000E-002   0.0000000000000000     
  0.37500000000000000       0.12500000000000000        0.0000000000000000     
  0.40625000000000000       0.12500000000000000        0.0000000000000000     
  0.43750000000000000       0.12500000000000000        0.0000000000000000     
  0.46875000000000000       0.12500000000000000        0.0000000000000000     
  0.50000000000000000       0.12500000000000000        0.0000000000000000     
  0.50000000000000000        0.0000000000000000        0.0000000000000000     
  0.53125000000000000        0.0000000000000000        0.0000000000000000     
  0.56250000000000000        0.0000000000000000        0.0000000000000000     
  0.59375000000000000        0.0000000000000000        0.0000000000000000     
  0.62500000000000000        0.0000000000000000        0.0000000000000000     
  0.50000000000000000        3.1250000000000000E-002   0.0000000000000000     
  0.53125000000000000        3.1250000000000000E-002   0.0000000000000000     
  0.56250000000000000        3.1250000000000000E-002   0.0000000000000000     
  0.59375000000000000        3.1250000000000000E-002   0.0000000000000000     
  0.62500000000000000        3.1250000000000000E-002   0.0000000000000000     
  0.50000000000000000        6.2500000000000000E-002   0.0000000000000000     
  0.53125000000000000        6.2500000000000000E-002   0.0000000000000000     
  0.56250000000000000        6.2500000000000000E-002   0.0000000000000000     
  0.59375000000000000        6.2500000000000000E-002   0.0000000000000000     
  0.62500000000000000        6.2500000000000000E-002   0.0000000000000000     
  0.50000000000000000        9.3750000000000000E-002   0.0000000000000000     
  0.53125000000000000        9.3750000000000000E-002   0.0000000000000000     
  0.56250000000000000        9.3750000000000000E-002   0.0000000000000000     
  0.59375000000000000        9.3750000000000000E-002   0.0000000000000000     
  0.62500000000000000        9.3750000000000000E-002   0.0000000000000000     
  0.50000000000000000       0.12500000000000000        0.0000000000000000     
  0.53125000000000000       0.12500000000000000        0.0000000000000000     
  0.56250000000000000       0.12500000000000000        0.0000000000000000     
[...]
 <PointData>
 <DataArray  type="Float64" Name="disp" NumberOfComponents="3" format="ascii">
   0.0000000000000000        0.0000000000000000        0.0000000000000000     
   6.0960919572229273E-003   3.7903954516995634E-003   0.0000000000000000     
   1.1666256638826859E-002   7.3237956727388318E-003   0.0000000000000000     
   1.6710494044811796E-002   1.0600200663117804E-002   0.0000000000000000     
   2.1228804175177737E-002   1.3619610422836485E-002   0.0000000000000000     
   0.0000000000000000        0.0000000000000000        0.0000000000000000     
   4.8912572570571251E-003   3.0221029927938281E-003   0.0000000000000000     
   9.5738633724386096E-003   6.0604627331550236E-003   0.0000000000000000     
   1.4047818346144457E-002   9.1150792210835871E-003   0.0000000000000000     
   1.8313122178174664E-002   1.2185952456579519E-002   0.0000000000000000     
   0.0000000000000000        0.0000000000000000        0.0000000000000000     
   3.9536606399375260E-003   2.4250650578518428E-003   0.0000000000000000     
   7.9108349381696447E-003   5.0627959898410027E-003   0.0000000000000000     
   1.1871522894696358E-002   7.9131927959674806E-003   0.0000000000000000     
   1.5835724509517663E-002   1.0976255476231274E-002   0.0000000000000000     
   0.0000000000000000        0.0000000000000000        0.0000000000000000     
   3.2833021058641314E-003   1.9992816468736071E-003   0.0000000000000000     
   6.6771713360199644E-003   4.3307954427967681E-003   0.0000000000000000     
   1.0181607690467498E-002   6.9945413877694823E-003   0.0000000000000000     
   1.3796611169206734E-002   9.9905194817917521E-003   0.0000000000000000     
   0.0000000000000000        0.0000000000000000        0.0000000000000000     
   2.8801816548369398E-003   1.7447527598591214E-003   0.0000000000000000     
   5.8728725659895672E-003   3.8644610920223199E-003   0.0000000000000000     
   8.9780727334578814E-003   6.3591249964895964E-003   0.0000000000000000     
   1.2195782157241881E-002   9.2287444732609501E-003   0.0000000000000000     
   2.1228804175177737E-002   1.3619610422836485E-002   0.0000000000000000     
   2.5434076524827830E-002   1.6612602569925184E-002   0.0000000000000000     
   2.9539200588665215E-002   1.9809754722414211E-002   0.0000000000000000     
   3.3544176366689903E-002   2.3211066880303572E-002   0.0000000000000000     
   3.7449003858901882E-002   2.6816539043593268E-002   0.0000000000000000     
   1.8313122178174664E-002   1.2185952456579519E-002   0.0000000000000000     
   2.2407975060656407E-002   1.5341431204428829E-002   0.0000000000000000     
   2.6370577185716861E-002   1.8649864229417529E-002   0.0000000000000000     
   3.0200928553356033E-002   2.2111251531545622E-002   0.0000000000000000     
   3.3899029163573915E-002   2.5725593110813100E-002   0.0000000000000000     
   1.5835724509517663E-002   1.0976255476231274E-002   0.0000000000000000     
   1.9731642524276248E-002   1.4210819264625770E-002   0.0000000000000000     
   2.3487479680614799E-002   1.7575719395144355E-002   0.0000000000000000     
   2.7103235978533313E-002   2.1070955867787029E-002   0.0000000000000000     
   3.0578911418031800E-002   2.4696528682553790E-002   0.0000000000000000     
   1.3796611169206734E-002   9.9905194817917521E-003   0.0000000000000000     
   1.7405078915687353E-002   1.3220766750516011E-002   0.0000000000000000     
   2.0889908073359015E-002   1.6587320219594692E-002   0.0000000000000000     
   2.4251098642221747E-002   2.0090179889027796E-002   0.0000000000000000     
   2.7488650622275526E-002   2.3729345758815329E-002   0.0000000000000000     
   1.2195782157241881E-002   9.2287444732609501E-003   0.0000000000000000     
   1.5428284234889714E-002   1.2371273662099542E-002   0.0000000000000000     
   1.8577862363949531E-002   1.5684666702768534E-002   0.0000000000000000     
   2.1644516544421316E-002   1.9168923595267926E-002   0.0000000000000000     
   2.4628246776305089E-002   2.2824044339597727E-002   0.0000000000000000     
   3.7449003858901882E-002   2.6816539043593268E-002   0.0000000000000000     
   4.1257912432305276E-002   3.0621635938241156E-002   0.0000000000000000     
   4.4975131453904221E-002   3.4621822290205086E-002   0.0000000000000000     
   4.8600660923698698E-002   3.8817098099485081E-002   0.0000000000000000     
   5.2134500841688719E-002   4.3207463366081125E-002   0.0000000000000000     
   3.3899029163573915E-002   2.5725593110813100E-002   0.0000000000000000     
   3.7487974052921355E-002   2.9521786459980572E-002   0.0000000000000000     
   4.0990858257949188E-002   3.3528729071808622E-002   0.0000000000000000     
   4.4407681778657400E-002   3.7746420946297272E-002   0.0000000000000000     
   4.7738444615046005E-002   4.2174862083446493E-002   0.0000000000000000     
   3.0578911418031800E-002   2.4696528682553790E-002   0.0000000000000000     
   3.3943875242390183E-002   2.8497020673312282E-002   0.0000000000000000     
   3.7227496694888389E-002   3.2517014673930179E-002   0.0000000000000000     
   4.0429775775526422E-002   3.6756510684407460E-002   0.0000000000000000     
   4.3550712484304276E-002   4.1215508704744122E-002   0.0000000000000000     
   2.7488650622275526E-002   2.3729345758815329E-002   0.0000000000000000     
   3.0625616000711758E-002   2.7547338578236307E-002   0.0000000000000000     
   3.3685046764721838E-002   3.1586679096569745E-002   0.0000000000000000     
   3.6666942914305757E-002   3.5847367313815659E-002   0.0000000000000000     
   3.9571304449463530E-002   4.0329403229974019E-002   0.0000000000000000     
   2.4628246776305089E-002   2.2824044339597727E-002   0.0000000000000000     
   2.7533196327886082E-002   2.6672740174752626E-002   0.0000000000000000     
   3.0363508467449521E-002   3.0737722339727342E-002   0.0000000000000000     
   3.3119183194995412E-002   3.5018990834521854E-002   0.0000000000000000     
   3.5800220510523770E-002   3.9516545659136190E-002   0.0000000000000000     
   5.2134500841688719E-002   4.3207463366081125E-002   0.0000000000000000     
   5.5574335718829131E-002   4.7797125434225700E-002   0.0000000000000000     
   5.8917850066074806E-002   5.2590291648151315E-002   0.0000000000000000     
   6.2165043883425732E-002   5.7586962007857956E-002   0.0000000000000000     
   6.5315917170881907E-002   6.2787136513345637E-002   0.0000000000000000     
   4.7738444615046005E-002   4.2174862083446493E-002   0.0000000000000000     
   5.0979273143720666E-002   4.6807326459191487E-002   0.0000000000000000     
   5.4126293741287031E-002   5.1637088049467469E-002   0.0000000000000000     
   5.7179506407745100E-002   5.6664146854274414E-002   0.0000000000000000     
   6.0138911143094893E-002   6.1888502873612347E-002   0.0000000000000000     
   4.3550712484304276E-002   4.1215508704744122E-002   0.0000000000000000     
   4.6586291234818306E-002   4.5881363767302646E-002   0.0000000000000000     
   4.9532496440664868E-002   5.0741430904445488E-002   0.0000000000000000     
   5.2389328101843935E-002   5.5795710116172667E-002   0.0000000000000000     
   5.5156786218355541E-002   6.1044201402484149E-002   0.0000000000000000     
   3.9571304449463530E-002   4.0329403229974019E-002   0.0000000000000000     
   4.2395389992122064E-002   4.5019237358559172E-002   0.0000000000000000     
   4.5136458164208304E-002   4.9903320213085398E-002   0.0000000000000000     
   4.7794508965722224E-002   5.4981651793552695E-002   0.0000000000000000     
   5.0369542396663830E-002   6.0254232099961051E-002   0.0000000000000000     
   3.5800220510523770E-002   3.9516545659136190E-002   0.0000000000000000     
   3.8406569415631940E-002   4.4220947232961050E-002   0.0000000000000000     
   4.0938178911917360E-002   4.9122755975387157E-002   0.0000000000000000     
   4.3395048999379959E-002   5.4221971886414498E-002   0.0000000000000000     
   4.5777179678019794E-002   5.9518594966043087E-002   0.0000000000000000     
   6.5315917170881907E-002   6.2787136513345637E-002   0.0000000000000000     
   6.8372476465500681E-002   6.8177805303451869E-002   0.0000000000000000     
   7.1336728304339417E-002   7.3745958517014237E-002   0.0000000000000000     
   7.4208672687398100E-002   7.9491596154032687E-002   0.0000000000000000     
   7.6988309614676717E-002   8.5414718214507260E-002   0.0000000000000000     
   6.0138911143094893E-002   6.1888502873612347E-002   0.0000000000000000     
   6.3008071601868776E-002   6.7301609002470120E-002   0.0000000000000000     
   6.5790551438599132E-002   7.2894918135836623E-002   0.0000000000000000     
   6.8486350653285982E-002   7.8668430273711884E-002   0.0000000000000000     
   7.1095469245929299E-002   8.4622145416095890E-002   0.0000000000000000     
   5.5156786218355541E-002   6.1044201402484149E-002   0.0000000000000000     
   5.7838843270208558E-002   6.6480652671943835E-002   0.0000000000000000     
   6.0439471737411869E-002   7.2098811833115534E-002   0.0000000000000000     
   6.2958671619965531E-002   7.7898678885999301E-002   0.0000000000000000     
   6.5396442917869474E-002   8.3880253830595122E-002   0.0000000000000000     
   5.0369542396663830E-002   6.0254232099961051E-002   0.0000000000000000     
   5.2864791470520020E-002   6.5714936311873001E-002   0.0000000000000000     
   5.5283489200777643E-002   7.1357639608850956E-002   0.0000000000000000     
   5.7625635587436705E-002   7.7182341990894937E-002   0.0000000000000000     
   5.9891230630497214E-002   8.3189043458004916E-002   0.0000000000000000     
   4.5777179678019794E-002   5.9518594966043087E-002   0.0000000000000000     
   4.8085916202803169E-002   6.5004459922257632E-002   0.0000000000000000     
   5.0322603828696424E-002   7.0671401463042863E-002   0.0000000000000000     
   5.2487242555699552E-002   7.6519419588398752E-002   0.0000000000000000     
   5.4579832383812539E-002   8.2548514298325326E-002   0.0000000000000000     
   7.6988309614676717E-002   8.5414718214507260E-002   0.0000000000000000     
   7.9671130656976105E-002   9.1506604196412322E-002   0.0000000000000000     
   8.2252627385097074E-002   9.7758533597722283E-002   0.0000000000000000     
   8.4732799799039610E-002  0.10417050641843711        0.0000000000000000     
   8.7111647898803740E-002  0.11074252265855682        0.0000000000000000     
   7.1095469245929299E-002   8.4622145416095890E-002   0.0000000000000000     
   7.3612937927282282E-002   9.0744904370966523E-002   0.0000000000000000     
   7.6033787408098089E-002   9.7025547946301735E-002   0.0000000000000000     
   7.8358017688376691E-002  0.10346407614210149        0.0000000000000000     
   8.0585628768118131E-002  0.11006048895836579        0.0000000000000000     
   6.5396442917869474E-002   8.3880253830595122E-002   0.0000000000000000     
   6.7747860740089941E-002   9.0030975681102909E-002   0.0000000000000000     
   7.0008000195593084E-002   9.6338283451722698E-002   0.0000000000000000     
   7.2176861284378946E-002  0.10280217714245445        0.0000000000000000     
   7.4254444006447512E-002  0.10942265675329815        0.0000000000000000     
   5.9891230630497214E-002   8.3189043458004916E-002   0.0000000000000000     
   6.2075899095399061E-002   8.9364818126821483E-002   0.0000000000000000     
   6.4175265747582116E-002   9.5696740113985171E-002   0.0000000000000000     
   6.6189330587046388E-002  0.10218480941949595        0.0000000000000000     
   6.8118093613791897E-002  0.10882902604335387        0.0000000000000000     
   5.4579832383812539E-002   8.2548514298325326E-002   0.0000000000000000     
   5.6597052993209662E-002   8.8746431708122214E-002   0.0000000000000000     
   5.8535584064065151E-002   9.5100917933089127E-002   0.0000000000000000     
   6.0395425596379018E-002  0.10161197297322605        0.0000000000000000     
   6.2176577590151272E-002  0.10827959682853300        0.0000000000000000     
   8.7111647898803740E-002  0.11074252265855682        0.0000000000000000     
   8.9396093873522445E-002  0.11745931775211232        0.0000000000000000     
   9.1593059912328731E-002  0.12430562713313459        0.0000000000000000     
   9.3702546015222613E-002  0.13128145080162357        0.0000000000000000     
   9.5724552182204076E-002  0.13838678875757926        0.0000000000000000     
   8.0585628768118131E-002  0.11006048895836579        0.0000000000000000     
   8.2725561356481944E-002  0.11680242062190396        0.0000000000000000     
   8.4786756162627722E-002  0.12367750535952528        0.0000000000000000     
   8.6769213186555436E-002  0.13068574317122977        0.0000000000000000     
   8.8672932428265128E-002  0.13782713405701741        0.0000000000000000     
   7.4254444006447512E-002  0.10942265675329815        0.0000000000000000     
   7.6250602275219445E-002  0.11618915064030222        0.0000000000000000     
   7.8175190004115436E-002  0.12309108715951510        0.0000000000000000     
   8.0028207193135470E-002  0.13012846631093672        0.0000000000000000     
   8.1809653842279562E-002  0.13730128809456718        0.0000000000000000     
   6.8118093613791897E-002  0.10882902604335387        0.0000000000000000     
   6.9971216629734934E-002  0.11561950780730716        0.0000000000000000     
   7.1758361436791873E-002  0.12254637253310403        0.0000000000000000     
   7.3479528034962688E-002  0.12960962022074451        0.0000000000000000     
   7.5134716424247405E-002  0.13680925087022858        0.0000000000000000     
   6.2176577590151272E-002  0.10827959682853300        0.0000000000000000     
   6.3887404420028424E-002  0.11509349212291872        0.0000000000000000     
   6.5536270460657048E-002  0.12204336148029209        0.0000000000000000     
   6.7123175712037117E-002  0.12912920490065308        0.0000000000000000     
   6.8648120174168631E-002  0.13635102238400165        0.0000000000000000     
   9.5724552182204076E-002  0.13838678875757926        0.0000000000000000     
   9.7655317574314421E-002  0.14561929736461510        0.0000000000000000     
   9.9491081352594934E-002  0.15297663298634440        0.0000000000000000     
  0.10123184351704557       0.16045879562276721        0.0000000000000000     
  0.10287760406766640       0.16806578527388352        0.0000000000000000     
   8.8672932428265128E-002  0.13782713405701741        0.0000000000000000     
   9.0486676341595768E-002  0.14509043310647390        0.0000000000000000     
   9.2199207380386422E-002  0.15246439540918502        0.0000000000000000     
   9.3810525544637063E-002  0.15994902096515073        0.0000000000000000     
   9.5320630834347719E-002  0.16754430977437107        0.0000000000000000     
   8.1809653842279562E-002  0.13730128809456718        0.0000000000000000     
   8.3504163571351625E-002  0.14459316574160477        0.0000000000000000     
   8.5096370000155561E-002  0.15198771248324788        0.0000000000000000     
   8.6586273128691396E-002  0.15948492831949657        0.0000000000000000     
   8.7973872956959104E-002  0.16708481325035077        0.0000000000000000     
   7.5134716424247405E-002  0.13680925087022858        0.0000000000000000     
   7.6707779263581938E-002  0.14412749527000762        0.0000000000000000     
   7.8182569211902336E-002  0.15154658420853301        0.0000000000000000     
   7.9559086269208532E-002  0.15906651768580463        0.0000000000000000     
   8.0837330435500565E-002  0.16668729570182264        0.0000000000000000     
   6.8648120174168631E-002  0.13635102238400165        0.0000000000000000     
   7.0097523418286803E-002  0.14369342169168253        0.0000000000000000     
   7.1457805015626749E-002  0.15114101058504029        0.0000000000000000     
   7.2728964966188511E-002  0.15869378906407505        0.0000000000000000     
   7.3911003269972061E-002  0.16635175712878669        0.0000000000000000     
   0.0000000000000000        0.0000000000000000        0.0000000000000000     
   2.8801816548369398E-003   1.7447527598591214E-003   0.0000000000000000     
   5.8728725659895672E-003   3.8644610920223199E-003   0.0000000000000000     
   8.9780727334578814E-003   6.3591249964895964E-003   0.0000000000000000     
   1.2195782157241881E-002   9.2287444732609501E-003   0.0000000000000000     
   0.0000000000000000        0.0000000000000000        0.0000000000000000     
   2.6104414381515591E-003   1.5888193329147413E-003   0.0000000000000000     
   5.2899432007785172E-003   3.5564814979998482E-003   0.0000000000000000     
   8.0385052878808750E-003   5.9029864952553227E-003   0.0000000000000000     
   1.0856127699458635E-002   8.6283343246811636E-003   0.0000000000000000     
   0.0000000000000000        0.0000000000000000        0.0000000000000000     
   2.3402236071035955E-003   1.4588223021468228E-003   0.0000000000000000     
   4.7203878130868829E-003   3.2995452212115453E-003   0.0000000000000000     
   7.1404926179498623E-003   5.5221687571941677E-003   0.0000000000000000     
   9.6005380216925319E-003   8.1266929100946884E-003   0.0000000000000000     
   0.0000000000000000        0.0000000000000000        0.0000000000000000     
   2.0695281616930489E-003   1.3547616675553657E-003   0.0000000000000000     
   4.1642064029146601E-003   3.0936522616574081E-003   0.0000000000000000     
   6.2840347236648329E-003   5.2166717823061287E-003   0.0000000000000000     
   8.4290131239435715E-003   7.7238202295015265E-003   0.0000000000000000     
   0.0000000000000000        0.0000000000000000        0.0000000000000000     
   1.7983551019199197E-003   1.2766374291403701E-003   0.0000000000000000     
   3.6213989702618518E-003   2.9388026193374397E-003   0.0000000000000000     
   5.4691316050257954E-003   4.9864955705912085E-003   0.0000000000000000     
   7.3415530062117523E-003   7.4197162829016750E-003   0.0000000000000000     
   1.2195782157241881E-002   9.2287444732609501E-003   0.0000000000000000     
   1.5428284234889714E-002   1.2371273662099542E-002   0.0000000000000000     
   1.8577862363949531E-002   1.5684666702768534E-002   0.0000000000000000     
   2.1644516544421316E-002   1.9168923595267926E-002   0.0000000000000000     
   2.4628246776305089E-002   2.2824044339597727E-002   0.0000000000000000     
   1.0856127699458635E-002   8.6283343246811636E-003   0.0000000000000000     
   1.3689521922806414E-002   1.1650285100994522E-002   0.0000000000000000     
   1.6485399445218832E-002   1.4886598938912549E-002   0.0000000000000000     
   1.9243760266695893E-002   1.8337275838435248E-002   0.0000000000000000     
   2.1964604387237595E-002   2.2002315799562615E-002   0.0000000000000000     
   9.6005380216925319E-003   8.1266929100946884E-003   0.0000000000000000     
   1.2077055420360517E-002   1.1045746168819105E-002   0.0000000000000000     
   1.4546576209999449E-002   1.4211957022273403E-002   0.0000000000000000     
   1.7009100390609318E-002   1.7625325470457583E-002   0.0000000000000000     
   1.9464627962190131E-002   2.1285851513371649E-002   0.0000000000000000     
   8.4290131239435715E-003   7.7238202295015265E-003   0.0000000000000000     
   1.0590884727552031E-002   1.0557656865573285E-002   0.0000000000000000     
   1.2761392658291369E-002   1.3660740952851084E-002   0.0000000000000000     
   1.4940536916161597E-002   1.7033072491334934E-002   0.0000000000000000     
   1.7128317501162699E-002   2.0674651481024823E-002   0.0000000000000000     
   7.3415530062117523E-003   7.4197162829016750E-003   0.0000000000000000     
   9.2310098443809455E-003   1.0186017191257068E-002   0.0000000000000000     
   1.1129848790094604E-002   1.3232950730645609E-002   0.0000000000000000     
   1.3038069843352720E-002   1.6560516901067295E-002   0.0000000000000000     
   1.4955673004155302E-002   2.0168715702522134E-002   0.0000000000000000     
   2.4628246776305089E-002   2.2824044339597727E-002   0.0000000000000000     
   2.7533196327886082E-002   2.6672740174752626E-002   0.0000000000000000     