 <VTKFile type="UnstructuredGrid"  version="0.1"   >
 <UnstructuredGrid>
 <Piece  NumberOfPoints="          1600 "  NumberOfCells="         1024 ">
 <Points>
 <DataArray  type="Float64" NumberOfComponents="3"  format="ascii" >
   0.0000000000000000        0.0000000000000000        0.0000000000000000     
   3.1250000000000000E-002   0.0000000000000000        0.0000000000000000     
   6.2500000000000000E-002   0.0000000000000000        0.0000000000000000     
   9.3750000000000000E-002   0.0000000000000000        0.0000000000000000     
  0.12500000000000000        0.0000000000000000        0.0000000000000000     
   0.0000000000000000        3.1250000000000000E-002   0.0000000000000000     
   3.1250000000000000E-002   3.1250000000000000E-002   0.0000000000000000     
   6.2500000000000000E-002   3.1250000000000000E-002   0.0000000000000000     
   9.3750000000000000E-002   3.1250000000000000E-002   0.0000000000000000     
  0.12500000000000000        3.1250000000000000E-002   0.0000000000000000     
   0.0000000000000000        6.2500000000000000E-002   0.0000000000000000     
   3.1250000000000000E-002   6.2500000000000000E-002   0.0000000000000000     
   6.2500000000000000E-002   6.2500000000000000E-002   0.0000000000000000     
   9.3750000000000000E-002   6.2500000000000000E-002   0.0000000000000000     
  0.12500000000000000        6.2500000000000000E-002   0.0000000000000000     
   0.0000000000000000        9.3750000000000000E-002   0.0000000000000000     
   3.1250000000000000E-002   9.3750000000000000E-002   0.0000000000000000     
   6.2500000000000000E-002   9.3750000000000000E-002   0.0000000000000000     
   9.3750000000000000E-002   9.3750000000000000E-002   0.0000000000000000     
  0.12500000000000000        9.3750000000000000E-002   0.0000000000000000     
   0.0000000000000000       0.12500000000000000        0.0000000000000000     
   3.1250000000000000E-002  0.12500000000000000        0.0000000000000000     
   6.2500000000000000E-002  0.12500000000000000        0.0000000000000000     
   9.3750000000000000E-002  0.12500000000000000        0.0000000000000000     
  0.12500000000000000       0.12500000000000000        0.0000000000000000     
  0.12500000000000000        0.0000000000000000        0.0000000000000000     
  0.15625000000000000        0.0000000000000000        0.0000000000000000     
  0.18750000000000000        0.0000000000000000        0.0000000000000000     
  0.21875000000000000        0.0000000000000000        0.0000000000000000     
  0.25000000000000000        0.0000000000000000        0.0000000000000000     
  0.12500000000000000        3.1250000000000000E-002   0.0000000000000000     
  0.15625000000000000        3.1250000000000000E-002   0.0000000000000000     
  0.18750000000000000        3.1250000000000000E-002   0.0000000000000000     
  0.21875000000000000        3.1250000000000000E-002   0.0000000000000000     
  0.25000000000000000        3.1250000000000000E-002   0.0000000000000000     
  0.12500000000000000        6.2500000000000000E-002   0.0000000000000000     
  0.15625000000000000        6.2500000000000000E-002   0.0000000000000000     
  0.18750000000000000        6.2500000000000000E-002   0.0000000000000000     
  0.21875000000000000        6.2500000000000000E-002   0.0000000000000000     
  0.25000000000000000        6.2500000000000000E-002   0.0000000000000000     
  0.12500000000000000        9.3750000000000000E-002   0.0000000000000000     
  0.15625000000000000        9.3750000000000000E-002   0.0000000000000000     
  0.18750000000000000        9.3750000000000000E-002   0.0000000000000000     
  0.21875000000000000        9.3750000000000000E-002   0.0000000000000000     
  0.25000000000000000        9.3750000000000000E-002   0.0000000000000000     
  0.12500000000000000       0.12500000000000000        0.0000000000000000     
  0.15625000000000000       0.12500000000000000        0.0000000000000000     
  0.18750000000000000       0.12500000000000000        0.0000000000000000     
  0.21875000000000000       0.12500000000000000        0.0000000000000000     
  0.25000000000000000       0.12500000000000000        0.0000000000000000     
  0.25000000000000000        0.0000000000000000        0.0000000000000000     
  0.28125000000000000        0.0000000000000000        0.0000000000000000     
  0.31250000000000000        0.0000000000000000        0.0000000000000000     
  0.34375000000000000        0.0000000000000000        0.0000000000000000     
  0.37500000000000000        0.0000000000000000        0.0000000000000000     
  0.25000000000000000        3.1250000000000000E-002   0.0000000000000000     
  0.28125000000000000        3.1250000000000000E-002   0.0000000000000000     
  0.31250000000000000        3.1250000000000000E-002   0.0000000000000000     
  0.34375000000000000        3.1250000000000000E-002   0.0000000000000000     
  0.37500000000000000        3.1250000000000000E-002   0.0000000000000000     
  0.25000000000000000        6.2500000000000000E-002   0.0000000000000000     
  0.28125000000000000        6.2500000000000000E-002   0.0000000000000000     
  0.31250000000000000        6.2500000000000000E-002   0.0000000000000000     
  0.34375000000000000        6.2500000000000000E-002   0.0000000000000000     
  0.37500000000000000        6.2500000000000000E-002   0.0000000000000000     
  0.25000000000000000        9.3750000000000000E-002   0.0000000000000000     
  0.28125000000000000        9.3750000000000000E-002   0.0000000000000000     
  0.31250000000000000        9.3750000000000000E-002   0.0000000000000000     
  0.34375000000000000        9.3750000000000000E-002   0.0000000000000000     
  0.37500000000000000        9.3750000000000000E-002   0.0000000000000000     
  0.25000000000000000       0.12500000000000000        0.0000000000000000     
  0.28125000000000000       0.12500000000000000        0.0000000000000000     
  0.31250000000000000       0.12500000000000000        0.0000000000000000     
  0.34375000000000000       0.12500000000000000        0.0000000000000000     
  0.37500000000000000       0.12500000000000000        0.0000000000000000     
  0.37500000000000000        0.0000000000000000        0.0000000000000000     
  0.40625000000000000        0.0000000000000000        0.0000000000000000     
  0.43750000000000000        0.0000000000000000        0.0000000000000000     
  0.46875000000000000        0.0000000000000000        0.0000000000000000     
  0.50000000000000000        0.0000000000000000        0.0000000000000000     
  0.37500000000000000        3.1250000000000000E-002   0.0000000000000000     
  0.40625000000000000        3.1250000000000000E-002   0.0000000000000000     
  0.43750000000000000        3.1250000000000000E-002   0.0000000000000000     
  0.46875000000000000        3.1250000000000000E-002   0.0000000000000000     
  0.50000000000000000        3.1250000000000000E-002   0.0000000000000000     
  0.37500000000000000        6.2500000000000000E-002   0.0000000000000000     
  0.40625000000000000        6.2500000000000000E-002   0.0000000000000000     
  0.43750000000000000        6.2500000000000000E-002   0.0000000000000000     
  0.46875000000000000        6.2500000000000000E-002   0.0000000000000000     
  0.50000000000000000        6.2500000000000000E-002   0.0000000000000000     
  0.37500000000000000        9.3750000000000000E-002   0.0000000000000000     
  0.40625000000000000        9.3750000000000000E-002   0.0000000000000000     
  0.43750000000000000        9.3750000000000000E-002   0.0000000000000000     
  0.46875000000000000        9.3750000000000000E-002   0.0000000000000000     
  0.50000000000000000        9.3750000000000000E-002   0.0000000000000000     
  0.37500000000000000       0.12500000000000000        0.0000000000000000     
  0.40625000000000000       0.12500000000000000        0.0000000000000000     
  0.43750000000000000       0.12500000000000000        0.0000000000000000     
  0.46875000000000000       0.12500000000000000        0.0000000000000000     
  0.50000000000000000       0.12500000000000000        0.0000000000000000     
  0.50000000000000000        0.0000000000000000        0.0000000000000000     
  0.53125000000000000        0.0000000000000000        0.0000000000000000     
  0.56250000000000000        0.0000000000000000        0.0000000000000000     
  0.59375000000000000        0.0000000000000000        0.0000000000000000     
  0.62500000000000000        0.0000000000000000        0.0000000000000000     
  0.50000000000000000        3.1250000000000000E-002   0.0000000000000000     
  0.53125000000000000        3.1250000000000000E-002   0.0000000000000000     
  0.56250000000000000        3.1250000000000000E-002   0.0000000000000000     
  0.59375000000000000        3.1250000000000000E-002   0.0000000000000000     
  0.62500000000000000        3.1250000000000000E-002   0.0000000000000000     
  0.50000000000000000        6.2500000000000000E-002   0.0000000000000000     
  0.53125000000000000        6.2500000000000000E-002   0.0000000000000000     
  0.56250000000000000        6.2500000000000000E-002   0.0000000000000000     
  0.59375000000000000        6.2500000000000000E-002   0.0000000000000000     
  0.62500000000000000        6.2500000000000000E-002   0.0000000000000000     
  0.50000000000000000        9.3750000000000000E-002   0.0000000000000000     
  0.53125000000000000        9.3750000000000000E-002   0.0000000000000000     
  0.56250000000000000        9.3750000000000000E-002   0.0000000000000000     
  0.59375000000000000        9.3750000000000000E-002   0.0000000000000000     
  0.62500000000000000        9.3750000000000000E-002   0.0000000000000000     
  0.50000000000000000       0.12500000000000000        0.0000000000000000     
  0.53125000000000000       0.12500000000000000        0.0000000000000000     
  0.56250000000000000       0.12500000000000000        0.0000000000000000     
[...]
 <PointData>
 <DataArray  type="Float64" Name="disp" NumberOfComponents="3" format="ascii">
   0.0000000000000000        0.0000000000000000        0.0000000000000000     
   6.0959802192888241E-003   3.7904324491907378E-003   0.0000000000000000     
   1.1666164674102661E-002   7.3238184994042100E-003   0.0000000000000000     
   1.6710553364441515E-002   1.0600158150640419E-002   0.0000000000000000     
   2.1229146290305381E-002   1.3619451402899361E-002   0.0000000000000000     
   0.0000000000000000        0.0000000000000000        0.0000000000000000     
   4.8912374004542059E-003   3.0221021871932514E-003   0.0000000000000000     
   9.5738709023525433E-003   6.0604426852513462E-003   0.0000000000000000     
   1.4047900505695014E-002   9.1150214941742858E-003   0.0000000000000000     
   1.8313326210481613E-002   1.2185838613962070E-002   0.0000000000000000     
   0.0000000000000000        0.0000000000000000        0.0000000000000000     
   3.9536924013564238E-003   2.4250362696449745E-003   0.0000000000000000     
   7.9108973232473821E-003   5.0627455126575557E-003   0.0000000000000000     
   1.1871614765672875E-002   7.9131277290377458E-003   0.0000000000000000     
   1.5835844728632902E-002   1.0976182918785545E-002   0.0000000000000000     
   0.0000000000000000        0.0000000000000000        0.0000000000000000     
   3.2833452219954776E-003   1.9992346965459072E-003   0.0000000000000000     
   6.6772439367871785E-003   4.3307269816228421E-003   0.0000000000000000     
   1.0181696144375099E-002   6.9944768552308040E-003   0.0000000000000000     
   1.3796701844759247E-002   9.9904843173697945E-003   0.0000000000000000     
   0.0000000000000000        0.0000000000000000        0.0000000000000000     
   2.8801958623713673E-003   1.7446974678960499E-003   0.0000000000000000     
   5.8729107429719308E-003   3.8643870921472021E-003   0.0000000000000000     
   8.9781446418016903E-003   6.3590688727534561E-003   0.0000000000000000     
   1.2195897558860644E-002   9.2287428097148141E-003   0.0000000000000000     
   2.1229146290305381E-002   1.3619451402899361E-002   0.0000000000000000     
   2.5434617542198921E-002   1.6612373579456940E-002   0.0000000000000000     
   2.9539641210626789E-002   1.9809600003589060E-002   0.0000000000000000     
   3.3544217295588992E-002   2.3211130675295712E-002   0.0000000000000000     
   3.7448345797085530E-002   2.6816965594576900E-002   0.0000000000000000     
   1.8313326210481613E-002   1.2185838613962070E-002   0.0000000000000000     
   2.2408254522912615E-002   1.5341293363297225E-002   0.0000000000000000     
   2.6370791949188281E-002   1.8649785060862279E-002   0.0000000000000000     
   3.0200938489308615E-002   2.2111313706657244E-002   0.0000000000000000     
   3.3898694143273615E-002   2.5725879300682111E-002   0.0000000000000000     
   1.5835844728632902E-002   1.0976182918785545E-002   0.0000000000000000     
   1.9731766713401416E-002   1.4210757162847604E-002   0.0000000000000000     
   2.3487560221252372E-002   1.7575696542170584E-002   0.0000000000000000     
   2.7103225252185753E-002   2.1071001056754479E-002   0.0000000000000000     
   3.0578761806201581E-002   2.4696670706599283E-002   0.0000000000000000     
   1.3796701844759247E-002   9.9904843173697945E-003   0.0000000000000000     
   1.7405154113665326E-002   1.3220764978108085E-002   0.0000000000000000     
   2.0889946026819043E-002   1.6587334447513952E-002   0.0000000000000000     
   2.4251077584220408E-002   2.0090192725587395E-002   0.0000000000000000     
   2.7488548785869413E-002   2.3729339812328422E-002   0.0000000000000000     
   1.2195897558860644E-002   9.2287428097148141E-003   0.0000000000000000     
   1.5428416723704340E-002   1.2371316809078664E-002   0.0000000000000000     
   1.8577949365888316E-002   1.5684698776892398E-002   0.0000000000000000     
   2.1644495485412578E-002   1.9168888713156019E-002   0.0000000000000000     
   2.4628055082277119E-002   2.2823886617869518E-002   0.0000000000000000     
   3.7448345797085530E-002   2.6816965594576900E-002   0.0000000000000000     
   4.1256838774512132E-002   3.0622294704044664E-002   0.0000000000000000     
   4.4974508287264542E-002   3.4622307946311034E-002   0.0000000000000000     
   4.8601354335342746E-002   3.8817005321375997E-002   0.0000000000000000     
   5.2137376918746772E-002   4.3206386829239579E-002   0.0000000000000000     
   3.3898694143273615E-002   2.5725879300682111E-002   0.0000000000000000     
   3.7487488288197229E-002   2.9522200512894354E-002   0.0000000000000000     
   4.0990750301193396E-002   3.3528996013251447E-002   0.0000000000000000     
   4.4408480182262108E-002   3.7746265801753401E-002   0.0000000000000000     
   4.7740677931403394E-002   4.2174009878400205E-002   0.0000000000000000     
   3.0578761806201581E-002   2.4696670706599283E-002   0.0000000000000000     
   3.3943728386281340E-002   2.8497201361998601E-002   0.0000000000000000     
   3.7227683495406540E-002   3.2517088893246025E-002   0.0000000000000000     
   4.0430627133577174E-002   3.6756333300341552E-002   0.0000000000000000     
   4.3552559300793235E-002   4.1214934583285193E-002   0.0000000000000000     
   2.7488548785869413E-002   2.3729339812328422E-002   0.0000000000000000     
   3.0625559068764466E-002   2.7547297251357412E-002   0.0000000000000000     
   3.3685307869903959E-002   3.1586586586294770E-002   0.0000000000000000     
   3.6667795189287915E-002   3.5847207817140479E-002   0.0000000000000000     
   3.9573021026916309E-002   4.0329160943894549E-002   0.0000000000000000     
   2.4628055082277119E-002   2.2823886617869518E-002   0.0000000000000000     
   2.7532980335646599E-002   2.6672488180970774E-002   0.0000000000000000     
   3.0363623424685675E-002   3.0737489092397655E-002   0.0000000000000000     
   3.3119984349394352E-002   3.5018889352150161E-002   0.0000000000000000     
   3.5802063109772610E-002   3.9516688960228280E-002   0.0000000000000000     
   5.2137376918746772E-002   4.3206386829239579E-002   0.0000000000000000     
   5.5578555387902559E-002   4.7795355227254720E-002   0.0000000000000000     
   5.8920869093236045E-002   5.2588813272774412E-002   0.0000000000000000     
   6.2164318034747271E-002   5.7586760965798622E-002   0.0000000000000000     
   6.5308902212436196E-002   6.2789198306327385E-002   0.0000000000000000     
   4.7740677931403394E-002   4.2174009878400205E-002   0.0000000000000000     
   5.0982226734409886E-002   4.6806015687883722E-002   0.0000000000000000     
   5.4128009777074257E-002   5.1636070674895854E-002   0.0000000000000000     
   5.7178027059396522E-002   5.6664174839436560E-002   0.0000000000000000     
   6.0132278581376680E-002   6.1890328181505888E-002   0.0000000000000000     
   4.3552559300793235E-002   4.1214934583285193E-002   0.0000000000000000     
   4.6588491294872421E-002   4.5880563577103753E-002   0.0000000000000000     
   4.9533434413632414E-002   5.0740891116824026E-002   0.0000000000000000     
   5.2387388657073229E-002   5.5795917202446040E-002   0.0000000000000000     
   5.5150354025194831E-002   6.1045641833969773E-002   0.0000000000000000     
   3.9573021026916309E-002   4.0329160943894549E-002   0.0000000000000000     
   4.2397349069290172E-002   4.5018998894914772E-002   0.0000000000000000     
   4.5137143002910524E-002   4.9903274598558929E-002   0.0000000000000000     
   4.7792402827777344E-002   5.4981988054827020E-002   0.0000000000000000     
   5.0363128543890662E-002   6.0255139263719039E-002   0.0000000000000000     
   3.5802063109772610E-002   3.9516688960228280E-002   0.0000000000000000     
   3.8408800057663124E-002   4.4221321641316813E-002   0.0000000000000000     
   4.0939135544908550E-002   4.9123221120100570E-002   0.0000000000000000     
   4.3393069571508902E-002   5.4222387396579523E-002   0.0000000000000000     
   4.5770602137464159E-002   5.9518820470753700E-002   0.0000000000000000     
   6.5308902212436196E-002   6.2789198306327385E-002   0.0000000000000000     
   6.8360986601014626E-002   6.8181623067237393E-002   0.0000000000000000     
   7.1326936175194311E-002   7.3749533021405370E-002   0.0000000000000000     
   7.4206750934975238E-002   7.9492928168831301E-002   0.0000000000000000     
   7.7000430880357421E-002   8.5411808509515186E-002   0.0000000000000000     
   6.0132278581376680E-002   6.1890328181505888E-002   0.0000000000000000     
   6.2998293162309482E-002   6.7304898160384083E-002   0.0000000000000000     
   6.5783599621489705E-002   7.2898252235351457E-002   0.0000000000000000     
   6.8488197958917349E-002   7.8670390406408011E-002   0.0000000000000000     
   7.1112088174592414E-002   8.4621312673553745E-002   0.0000000000000000     
   5.5150354025194831E-002   6.1045641833969773E-002   0.0000000000000000     
   5.7830005372035559E-002   6.6483135799946316E-002   0.0000000000000000     
   6.0434017551633697E-002   7.2101469888926781E-002   0.0000000000000000     
   6.2962390563989251E-002   7.7900644100911146E-002   0.0000000000000000     
   6.5415124409102229E-002   8.3880658435899411E-002   0.0000000000000000     
   5.0363128543890662E-002   6.0255139263719039E-002   0.0000000000000000     
   5.2856123230192835E-002   6.5716335985924093E-002   0.0000000000000000     
   5.5278189965626272E-002   7.1359185982131354E-002   0.0000000000000000     
   5.7629328750190952E-002   7.7183689252340718E-002   0.0000000000000000     
   5.9909539583886881E-002   8.3189845796552281E-002   0.0000000000000000     
   4.5770602137464159E-002   5.9518820470753700E-002   0.0000000000000000     
   4.8076646736781331E-002   6.5004498718317441E-002   0.0000000000000000     
   5.0316116863467424E-002   7.0671400514965135E-002   0.0000000000000000     
   5.2489012517522429E-002   7.6519525860696755E-002   0.0000000000000000     
   5.4595333698946341E-002   8.2548874755512314E-002   0.0000000000000000     
   7.7000430880357421E-002   8.5411808509515186E-002   0.0000000000000000     
   7.9696003662388826E-002   9.1500543757510155E-002   0.0000000000000000     
   8.2281496932117379E-002   9.7753503626869312E-002   0.0000000000000000     
   8.4756910689543094E-002  0.10417068811759266        0.0000000000000000     
   8.7122244934665971E-002  0.11075209722968019        0.0000000000000000     
   7.1112088174592414E-002   8.4621312673553745E-002   0.0000000000000000     
   7.3642116743659863E-002   9.0741963847682766E-002   0.0000000000000000     
   7.6065130141264647E-002   9.7023288739689281E-002   0.0000000000000000     
   7.8381128367406766E-002  0.10346528734957329        0.0000000000000000     
   8.0590111422086247E-002  0.11006795967733476        0.0000000000000000     
   6.5415124409102229E-002   8.3880658435899411E-002   0.0000000000000000     
   6.7778828856432452E-002   9.0030261283158025E-002   0.0000000000000000     
   7.0040113675439719E-002   9.6338201031953452E-002   0.0000000000000000     
   7.2198978866124044E-002  0.10280447768228568        0.0000000000000000     
   7.4255424428485414E-002  0.10942909123415469        0.0000000000000000     
   5.9909539583886881E-002   8.3189845796552281E-002   0.0000000000000000     
   6.2106140000706578E-002   8.9365436063935974E-002   0.0000000000000000     
   6.4206447534642580E-002   9.5698240503661811E-002   0.0000000000000000     
   6.6210462185694874E-002  0.10218825911572982        0.0000000000000000     
   6.8118183953863459E-002  0.10883549190013993        0.0000000000000000     
   5.4595333698946341E-002   8.2548874755512314E-002   0.0000000000000000     
   5.6624050176482262E-002   8.8747488190016585E-002   0.0000000000000000     
   5.8564131718873237E-002   9.5103407154814371E-002   0.0000000000000000     
   6.0415578326119289E-002  0.10161663164990570        0.0000000000000000     
   6.2178389998220410E-002  0.10828716167529050        0.0000000000000000     
   8.7122244934665971E-002  0.11075209722968019        0.0000000000000000     
   8.9394186767346590E-002  0.11747686755054546        0.0000000000000000     
   9.1589423287445473E-002  0.12432413566760203        0.0000000000000000     
   9.3707954494962664E-002  0.13129390158084991        0.0000000000000000     
   9.5749780389898148E-002  0.13838616529028905        0.0000000000000000     
   8.0590111422086247E-002  0.11006795967733476        0.0000000000000000     
   8.2714325771240771E-002  0.11681551817425068        0.0000000000000000     
   8.4776017880807963E-002  0.12369217529159797        0.0000000000000000     
   8.6775187750787894E-002  0.13069793102937668        0.0000000000000000     
   8.8711835381180548E-002  0.13783278538758678        0.0000000000000000     
   7.4255424428485414E-002  0.10942909123415469        0.0000000000000000     
   7.6234306417455031E-002  0.11619947792374251        0.0000000000000000     
   7.8160480887964109E-002  0.12310307398723125        0.0000000000000000     
   8.0033947840012609E-002  0.13013987942462085        0.0000000000000000     
   8.1854707273600544E-002  0.13730989423591131        0.0000000000000000     
   6.8118183953863459E-002  0.10883549190013993        0.0000000000000000     
   6.9954128705989424E-002  0.11562874679902101        0.0000000000000000     
   7.1742812308913870E-002  0.12255683175450181        0.0000000000000000     
   7.3484234762636783E-002  0.12961974676658239        0.0000000000000000     
   7.5178396067158121E-002  0.13681749183526271        0.0000000000000000     
   6.2178389998220410E-002  0.10828716167529050        0.0000000000000000     
   6.3873792636843951E-002  0.11510332480008610        0.0000000000000000     
   6.5523012143657272E-002  0.12205344859340971        0.0000000000000000     
   6.7126048518660386E-002  0.12913753305526132        0.0000000000000000     
   6.8682901761853279E-002  0.13635557818564092        0.0000000000000000     
   9.5749780389898148E-002  0.13838616529028905        0.0000000000000000     
   9.7696673487736349E-002  0.14560732702120610        0.0000000000000000     
   9.9530406303961719E-002  0.15296378699888757        0.0000000000000000     
  0.10125097883857423       0.16045554522333350        0.0000000000000000     
  0.10285839109157391       0.16808260169454389        0.0000000000000000     
   8.8711835381180548E-002  0.13783278538758678        0.0000000000000000     
   9.0550213669080420E-002  0.14508977117131572        0.0000000000000000     
   9.2254575511582018E-002  0.15246192118565094        0.0000000000000000     
   9.3824920908685314E-002  0.15994923543059250        0.0000000000000000     
   9.5261249860390335E-002  0.16755171390614032        0.0000000000000000     
   8.1854707273600544E-002  0.13730989423591131        0.0000000000000000     
   8.3578066238551782E-002  0.14459851470745622        0.0000000000000000     
   8.5159331784690109E-002  0.15199113712560897        0.0000000000000000     
   8.6598503912015595E-002  0.15948776149036969        0.0000000000000000     
   8.7895582620528184E-002  0.16708838780173829        0.0000000000000000     
   7.5178396067158121E-002  0.13681749183526271        0.0000000000000000     
   7.6780231196150392E-002  0.14413355762962757        0.0000000000000000     
   7.8244675123286034E-002  0.15155143481876171        0.0000000000000000     
   7.9571727848565102E-002  0.15907112340266513        0.0000000000000000     
   8.0761389371987499E-002  0.16669262338133783        0.0000000000000000     
   6.8682901761853279E-002  0.13635557818564092        0.0000000000000000     
   7.0156708541876292E-002  0.14369489993782977        0.0000000000000000     
   7.1510605527369792E-002  0.15114281426510906        0.0000000000000000     
   7.2744592718333764E-002  0.15869932116747876        0.0000000000000000     
   7.3858670114768224E-002  0.16636442064493895        0.0000000000000000     
   0.0000000000000000        0.0000000000000000        0.0000000000000000     
   2.8801958623713673E-003   1.7446974678960499E-003   0.0000000000000000     
   5.8729107429719308E-003   3.8643870921472021E-003   0.0000000000000000     
   8.9781446418016903E-003   6.3590688727534561E-003   0.0000000000000000     
   1.2195897558860644E-002   9.2287428097148141E-003   0.0000000000000000     
   0.0000000000000000        0.0000000000000000        0.0000000000000000     
   2.6104157609528784E-003   1.5887621629524129E-003   0.0000000000000000     
   5.2899345348650364E-003   3.5564088284715865E-003   0.0000000000000000     
   8.0385563217364731E-003   5.9029399965575199E-003   0.0000000000000000     
   1.0856281121567189E-002   8.6283556672102132E-003   0.0000000000000000     
   0.0000000000000000        0.0000000000000000        0.0000000000000000     
   2.3401763562087966E-003   1.4587663609720069E-003   0.0000000000000000     
   4.7203521055298910E-003   3.2994751748369436E-003   0.0000000000000000     
   7.1405272479632817E-003   5.5221264415948089E-003   0.0000000000000000     
   9.6007017835089709E-003   8.1267201612456041E-003   0.0000000000000000     
   0.0000000000000000        0.0000000000000000        0.0000000000000000     
   2.0694776481391219E-003   1.3547100619548320E-003   0.0000000000000000     
   4.1641634549664944E-003   3.0935861312432734E-003   0.0000000000000000     
   6.2840574204821179E-003   5.2166282078653240E-003   0.0000000000000000     
   8.4291595446859893E-003   7.7238362918209836E-003   0.0000000000000000     
   0.0000000000000000        0.0000000000000000        0.0000000000000000     
   1.7983196367438543E-003   1.2765932659008880E-003   0.0000000000000000     
   3.6213685831748468E-003   2.9387416976905762E-003   0.0000000000000000     
   5.4691468392929782E-003   4.9864452953690651E-003   0.0000000000000000     
   7.3416544050982479E-003   7.4197040589363541E-003   0.0000000000000000     
   1.2195897558860644E-002   9.2287428097148141E-003   0.0000000000000000     
   1.5428416723704340E-002   1.2371316809078664E-002   0.0000000000000000     
   1.8577949365888316E-002   1.5684698776892398E-002   0.0000000000000000     
   2.1644495485412578E-002   1.9168888713156019E-002   0.0000000000000000     
   2.4628055082277119E-002   2.2823886617869518E-002   0.0000000000000000     
   1.0856281121567189E-002   8.6283556672102132E-003   0.0000000000000000     
   1.3689738795465870E-002   1.1650354093546079E-002   0.0000000000000000     
   1.6485559204541186E-002   1.4886633528681520E-002   0.0000000000000000     
   1.9243742348793148E-002   1.8337193972616548E-002   0.0000000000000000     
   2.1964288228221759E-002   2.2002035425351153E-002   0.0000000000000000     
   9.6007017835089709E-003   8.1267201612456041E-003   0.0000000000000000     
   1.2077304580897312E-002   1.1045818269297064E-002   0.0000000000000000     
   1.4546764508858664E-002   1.4211982701256932E-002   0.0000000000000000     
   1.7009081567393024E-002   1.7625213457125203E-002   0.0000000000000000     
   1.9464255756500390E-002   2.1285510536901878E-002   0.0000000000000000     
   8.4291595446859893E-003   7.7238362918209836E-003   0.0000000000000000     
   1.0591114079998682E-002   1.0557709336331628E-002   0.0000000000000000     
   1.2761565278840745E-002   1.3660746294618626E-002   0.0000000000000000     
   1.4940513141212197E-002   1.7032947166681984E-002   0.0000000000000000     
   1.7127957667113024E-002   2.0674311952521701E-002   0.0000000000000000     
   7.3416544050982479E-003   7.4197040589363541E-003   0.0000000000000000     
   9.2311672927699647E-003   1.0186027294649765E-002   0.0000000000000000     
   1.1129961514487436E-002   1.3232924308766611E-002   0.0000000000000000     
   1.3038037070250669E-002   1.6560395101286898E-002   0.0000000000000000     
   1.4955393960059651E-002   2.0168439672210624E-002   0.0000000000000000     
   2.4628055082277119E-002   2.2823886617869518E-002   0.0000000000000000     
   2.7532980335646599E-002   2.6672488180970774E-002   0.0000000000000000     