 <VTKFile type="UnstructuredGrid"  version="0.1"   >
 <UnstructuredGrid>
 <Piece  NumberOfPoints="          1600 "  NumberOfCells="         1024 ">
 <Points>
 <DataArray  type="Float64" NumberOfComponents="3"  format="ascii" >
   0.0000000000000000        0.0000000000000000        0.0000000000000000     
   3.1250000000000000E-002   0.0000000000000000        0.0000000000000000     
   6.2500000000000000E-002   0.0000000000000000        0.0000000000000000     
   9.3750000000000000E-002   0.0000000000000000        0.0000000000000000     
  0.12500000000000000        0.0000000000000000        0.0000000000000000     
   0.0000000000000000        3.1250000000000000E-002   0.0000000000000000     
   3.1250000000000000E-002   3.1250000000000000E-002   0.0000000000000000     
   6.2500000000000000E-002   3.1250000000000000E-002   0.0000000000000000     
   9.3750000000000000E-002   3.1250000000000000E-002   0.0000000000000000     
  0.12500000000000000        3.1250000000000000E-002   0.0000000000000000     
   0.0000000000000000        6.2500000000000000E-002   0.0000000000000000     
   3.1250000000000000E-002   6.2500000000000000E-002   0.0000000000000000     
   6.2500000000000000E-002   6.2500000000000000E-002   0.0000000000000000     
   9.3750000000000000E-002   6.2500000000000000E-002   0.0000000000000000     
  0.12500000000000000        6.2500000000000000E-002   0.0000000000000000     
   0.0000000000000000        9.3750000000000000E-002   0.0000000000000000     
   3.1250000000000000E-002   9.3750000000000000E-002   0.0000000000000000     
   6.2500000000000000E-002   9.3750000000000000E-002   0.0000000000000000     
   9.3750000000000000E-002   9.3750000000000000E-002   0.0000000000000000     
  0.12500000000000000        9.3750000000000000E-002   0.0000000000000000     
   0.0000000000000000       0.12500000000000000        0.0000000000000000     
   3.1250000000000000E-002  0.12500000000000000        0.0000000000000000     
   6.2500000000000000E-002  0.12500000000000000        0.0000000000000000     
   9.3750000000000000E-002  0.12500000000000000        0.0000000000000000     
  0.12500000000000000       0.12500000000000000        0.0000000000000000     
  0.12500000000000000        0.0000000000000000        0.0000000000000000     
  0.15625000000000000        0.0000000000000000        0.0000000000000000     
  0.18750000000000000        0.0000000000000000        0.0000000000000000     
  0.21875000000000000        0.0000000000000000        0.0000000000000000     
  0.25000000000000000        0.0000000000000000        0.0000000000000000     
  0.12500000000000000        3.1250000000000000E-002   0.0000000000000000     
  0.15625000000000000        3.1250000000000000E-002   0.0000000000000000     
  0.18750000000000000        3.1250000000000000E-002   0.0000000000000000     
  0.21875000000000000        3.1250000000000000E-002   0.0000000000000000     
  0.25000000000000000        3.1250000000000000E-002   0.0000000000000000     
  0.12500000000000000        6.2500000000000000E-002   0.0000000000000000     
  0.15625000000000000        6.2500000000000000E-002   0.0000000000000000     
  0.18750000000000000        6.2500000000000000E-002   0.0000000000000000     
  0.21875000000000000        6.2500000000000000E-002   0.0000000000000000     
  0.25000000000000000        6.2500000000000000E-002   0.0000000000000000     
  0.12500000000000000        9.3750000000000000E-002   0.0000000000000000     
  0.15625000000000000        9.3750000000000000E-002   0.0000000000000000     
  0.18750000000000000        9.3750000000000000E-002   0.0000000000000000     
  0.21875000000000000        9.3750000000000000E-002   0.0000000000000000     
  0.25000000000000000        9.3750000000000000E-002   0.0000000000000000     
  0.12500000000000000       0.12500000000000000        0.0000000000000000     
  0.15625000000000000       0.12500000000000000        0.0000000000000000     
  0.18750000000000000       0.12500000000000000        0.0000000000000000     
  0.21875000000000000       0.12500000000000000        0.0000000000000000     
  0.25000000000000000       0.12500000000000000        0.0000000000000000     
  0.25000000000000000        0.0000000000000000        0.0000000000000000     
  0.28125000000000000        0.0000000000000000        0.0000000000000000     
  0.31250000000000000        0.0000000000000000        0.0000000000000000     
  0.34375000000000000        0.0000000000000000        0.0000000000000000     
  0.37500000000000000        0.0000000000000000        0.0000000000000000     
  0.25000000000000000        3.1250000000000000E-002   0.0000000000000000     
  0.28125000000000000        3.1250000000000000E-002   0.0000000000000000     
  0.31250000000000000        3.1250000000000000E-002   0.0000000000000000     
  0.34375000000000000        3.1250000000000000E-002   0.0000000000000000     
  0.37500000000000000        3.1250000000000000E-002   0.0000000000000000     
  0.25000000000000000        6.2500000000000000E-002   0.0000000000000000     
  0.28125000000000000        6.2500000000000000E-002   0.0000000000000000     
  0.31250000000000000        6.2500000000000000E-002   0.0000000000000000     
  0.34375000000000000        6.2500000000000000E-002   0.0000000000000000     
  0.37500000000000000        6.2500000000000000E-002   0.0000000000000000     
  0.25000000000000000        9.3750000000000000E-002   0.0000000000000000     
  0.28125000000000000        9.3750000000000000E-002   0.0000000000000000     
  0.31250000000000000        9.3750000000000000E-002   0.0000000000000000     
  0.34375000000000000        9.3750000000000000E-002   0.0000000000000000     
  0.37500000000000000        9.3750000000000000E-002   0.0000000000000000     
  0.25000000000000000       0.12500000000000000        0.0000000000000000     
  0.28125000000000000       0.12500000000000000        0.0000000000000000     
  0.31250000000000000       0.12500000000000000        0.0000000000000000     
  0.34375000000000000       0.12500000000000000        0.0000000000000000     
  0.37500000000000000       0.12500000000000000        0.0000000000000000     
  0.37500000000000000        0.0000000000000000        0.0000000000000000     
  0.40625000000000000        0.0000000000000000        0.0000000000000000     
  0.43750000000000000        0.0000000000000000        0.0000000000000000     
  0.46875000000000000        0.0000000000000000        0.0000000000000000     
  0.50000000000000000        0.0000000000000000        0.0000000000000000     
  0.37500000000000000        3.1250000000000000E-002   0.0000000000000000     
  0.40625000000000000        3.1250000000000000E-002   0.0000000000000000     
  0.43750000000000000        3.1250000000000000E-002   0.0000000000000000     
  0.46875000000000000        3.1250000000000000E-002   0.0000000000000000     
  0.50000000000000000        3.1250000000000000E-002   0.0000000000000000     
  0.37500000000000000        6.2500000000000000E-002   0.0000000000000000     
  0.40625000000000000        6.2500000000000000E-002   0.0000000000000000     
  0.43750000000000000        6.2500000000000000E-002   0.0000000000000000     
  0.46875000000000000        6.2500000000000000E-002   0.0000000000000000     
  0.50000000000000000        6.2500000000000000E-002   0.0000000000000000     
  0.37500000000000000        9.3750000000000000E-002   0.0000000000000000     
  0.40625000000000000        9.3750000000000000E-002   0.0000000000000000     
  0.43750000000000000        9.3750000000000000E-002   0.0000000000000000     
  0.46875000000000000        9.3750000000000000E-002   0.0000000000000000     
  0.50000000000000000        9.3750000000000000E-002   0.0000000000000000     
  0.37500000000000000       0.12500000000000000        0.0000000000000000     
  0.40625000000000000       0.12500000000000000        0.0000000000000000     
  0.43750000000000000       0.12500000000000000        0.0000000000000000     
  0.46875000000000000       0.12500000000000000        0.0000000000000000     
  0.50000000000000000       0.12500000000000000        0.0000000000000000     
  0.50000000000000000        0.0000000000000000        0.0000000000000000     
  0.53125000000000000        0.0000000000000000        0.0000000000000000     
  0.56250000000000000        0.0000000000000000        0.0000000000000000     
  0.59375000000000000        0.0000000000000000        0.0000000000000000     
  0.62500000000000000        0.0000000000000000        0.0000000000000000     
  0.50000000000000000        3.1250000000000000E-002   0.0000000000000000     
  0.53125000000000000        3.1250000000000000E-002   0.0000000000000000     
  0.56250000000000000        3.1250000000000000E-002   0.0000000000000000     
  0.59375000000000000        3.1250000000000000E-002   0.0000000000000000     
  0.62500000000000000        3.1250000000000000E-002   0.0000000000000000     
  0.50000000000000000        6.2500000000000000E-002   0.0000000000000000     
  0.53125000000000000        6.2500000000000000E-002   0.0000000000000000     
  0.56250000000000000        6.2500000000000000E-002   0.0000000000000000     
  0.59375000000000000        6.2500000000000000E-002   0.0000000000000000     
  0.62500000000000000        6.2500000000000000E-002   0.0000000000000000     
  0.50000000000000000        9.3750000000000000E-002   0.0000000000000000     
  0.53125000000000000        9.3750000000000000E-002   0.0000000000000000     
  0.56250000000000000        9.3750000000000000E-002   0.0000000000000000     
  0.59375000000000000        9.3750000000000000E-002   0.0000000000000000     
  0.62500000000000000        9.3750000000000000E-002   0.0000000000000000     
  0.50000000000000000       0.12500000000000000        0.0000000000000000     
  0.53125000000000000       0.12500000000000000        0.0000000000000000     
  0.56250000000000000       0.12500000000000000        0.0000000000000000     
[...]
 <PointData>
 <DataArray  type="Float64" Name="disp" NumberOfComponents="3" format="ascii">
   0.0000000000000000        0.0000000000000000        0.0000000000000000     
   6.5169785294938564E-003   4.1303288820882869E-003   0.0000000000000000     
   1.2442485627567416E-002   7.9530683579227511E-003   0.0000000000000000     
   1.7776521294220676E-002   1.1468218427503393E-002   0.0000000000000000     
   2.2519085529453642E-002   1.4675779090830211E-002   0.0000000000000000     
   0.0000000000000000        0.0000000000000000        0.0000000000000000     
   5.2240500975247097E-003   3.3151100475752302E-003   0.0000000000000000     
   1.0209112349059281E-002   6.6150753825997199E-003   0.0000000000000000     
   1.4955186754603712E-002   9.8998960050734695E-003   0.0000000000000000     
   1.9462273314158000E-002   1.3169571914996479E-002   0.0000000000000000     
   0.0000000000000000        0.0000000000000000        0.0000000000000000     
   4.2265661168089212E-003   2.6826816749361223E-003   0.0000000000000000     
   8.4504512754485523E-003   5.5593918241032478E-003   0.0000000000000000     
   1.2671655475918892E-002   8.6301304475013742E-003   0.0000000000000000     
   1.6890178718219937E-002   1.1894897545130505E-002   0.0000000000000000     
   0.0000000000000000        0.0000000000000000        0.0000000000000000     
   3.5245265873464914E-003   2.2330437641709640E-003   0.0000000000000000     
   7.1665024067352305E-003   4.7860176824333321E-003   0.0000000000000000     
   1.0925927458166215E-002   7.6589217547871078E-003   0.0000000000000000     
   1.4802801741639447E-002   1.0851755981232288E-002   0.0000000000000000     
   0.0000000000000000        0.0000000000000000        0.0000000000000000     
   3.1179315091374193E-003   1.9661963152797545E-003   0.0000000000000000     
   6.3572657429193154E-003   4.2949529575899772E-003   0.0000000000000000     
   9.7180027013456863E-003   6.9862699269306675E-003   0.0000000000000000     
   1.3200142384416537E-002   1.0040147223301824E-002   0.0000000000000000     
   2.2519085529453642E-002   1.4675779090830211E-002   0.0000000000000000     
   2.6910421127929782E-002   1.7818091038039979E-002   0.0000000000000000     
   3.1190770884312564E-002   2.1137494959269466E-002   0.0000000000000000     
   3.5360134798601998E-002   2.4633990854518676E-002   0.0000000000000000     
   3.9418512870798082E-002   2.8307578723787613E-002   0.0000000000000000     
   1.9462273314158000E-002   1.3169571914996479E-002   0.0000000000000000     
   2.3775717197662548E-002   1.6490934441940948E-002   0.0000000000000000     
   2.7940863575057751E-002   1.9930814915479086E-002   0.0000000000000000     
   3.1957712446343607E-002   2.3489213335610885E-002   0.0000000000000000     
   3.5826263811520112E-002   2.7166129702336346E-002   0.0000000000000000     
   1.6890178718219937E-002   1.1894897545130505E-002   0.0000000000000000     
   2.1028460829803079E-002   1.5303254760443552E-002   0.0000000000000000     
   2.5008941638119696E-002   1.8804763736893427E-002   0.0000000000000000     
   2.8831621143169787E-002   2.2399424474480140E-002   0.0000000000000000     
   3.2496499344953370E-002   2.6087236973203681E-002   0.0000000000000000     
   1.4802801741639447E-002   1.0851755981232288E-002   0.0000000000000000     
   1.8668652024351366E-002   1.4255051993547778E-002   0.0000000000000000     
   2.2395005073498401E-002   1.7759341423512504E-002   0.0000000000000000     
   2.5981860889080558E-002   2.1364624271126446E-002   0.0000000000000000     
   2.9429219471097837E-002   2.5070900536389624E-002   0.0000000000000000     
   1.3200142384416537E-002   1.0040147223301824E-002   0.0000000000000000     
   1.6696290781307414E-002   1.3346326141253639E-002   0.0000000000000000     
   2.0099053881193873E-002   1.6794547975336301E-002   0.0000000000000000     
   2.3408431684075911E-002   2.0384812725549806E-002   0.0000000000000000     
   2.6624424189953529E-002   2.4117120391894162E-002   0.0000000000000000     
   3.9418512870798082E-002   2.8307578723787613E-002   0.0000000000000000     
   4.3368276244680190E-002   3.2150278339837871E-002   0.0000000000000000     
   4.7211796064027742E-002   3.6154109475431080E-002   0.0000000000000000     
   5.0949072328840696E-002   4.0319072130567228E-002   0.0000000000000000     
   5.4580105039119087E-002   4.4645166305246314E-002   0.0000000000000000     
   3.5826263811520112E-002   2.7166129702336346E-002   0.0000000000000000     
   3.9574698526410983E-002   3.0994416293112462E-002   0.0000000000000000     
   4.3231197446839932E-002   3.5006925385396209E-002   0.0000000000000000     
   4.6795760572806940E-002   3.9203656979187602E-002   0.0000000000000000     
   5.0268387904312026E-002   4.3584611074486634E-002   0.0000000000000000     
   3.2496499344953370E-002   2.6087236973203681E-002   0.0000000000000000     
   3.6040453092419357E-002   2.9919113787333779E-002   0.0000000000000000     
   3.9500359234516717E-002   3.3945967471140141E-002   0.0000000000000000     
   4.2876217771245430E-002   3.8167798024622779E-002   0.0000000000000000     
   4.6168028702605515E-002   4.2584605447781677E-002   0.0000000000000000     
   2.9429219471097837E-002   2.5070900536389624E-002   0.0000000000000000     
   3.2765539942705320E-002   2.8924370822501828E-002   0.0000000000000000     
   3.6019281427058097E-002   3.2971235732662876E-002   0.0000000000000000     
   3.9190443924156167E-002   3.7211495266872750E-002   0.0000000000000000     
   4.2279027433999521E-002   4.1645149425131464E-002   0.0000000000000000     
   2.6624424189953529E-002   2.4117120391894162E-002   0.0000000000000000     
   2.9749959077268871E-002   2.8010187398616611E-002   0.0000000000000000     
   3.2787964024464072E-002   3.2082730169964400E-002   0.0000000000000000     
   3.5738439031539143E-002   3.6334748705937524E-002   0.0000000000000000     
   3.8601384098494063E-002   4.0766243006535988E-002   0.0000000000000000     
   5.4580105039119087E-002   4.4645166305246314E-002   0.0000000000000000     
   5.8118076405807642E-002   4.9144029315634538E-002   0.0000000000000000     
   6.1576168639851159E-002   5.3827298477898133E-002   0.0000000000000000     
   6.4954381741249609E-002   5.8694973792037065E-002   0.0000000000000000     
   6.8252715710003006E-002   6.3747055258051355E-002   0.0000000000000000     
   5.0268387904312026E-002   4.3584611074486634E-002   0.0000000000000000     
   5.3644704371739037E-002   4.8141630516111318E-002   0.0000000000000000     
   5.6920334905471770E-002   5.2866558148879694E-002   0.0000000000000000     
   6.0095279505510267E-002   5.7759393972791763E-002   0.0000000000000000     
   6.3169538171854500E-002   6.2820137987847510E-002   0.0000000000000000     
   4.6168028702605515E-002   4.2584605447781677E-002   0.0000000000000000     
   4.9365419628387960E-002   4.7179798813523251E-002   0.0000000000000000     
   5.2458018148383800E-002   5.1936787194753892E-002   0.0000000000000000     
   5.5445824262592987E-002   5.6855570591473607E-002   0.0000000000000000     
   5.8328837971015575E-002   6.1936149003682391E-002   0.0000000000000000     
   4.2279027433999521E-002   4.1645149425131464E-002   0.0000000000000000     
   4.5280222175754448E-002   4.6258534207870364E-002   0.0000000000000000     
   4.8189218368587215E-002   5.1037985615520740E-002   0.0000000000000000     
   5.1006016012497803E-002   5.5983503648082612E-002   0.0000000000000000     
   5.3730615107486217E-002   6.1095088305555982E-002   0.0000000000000000     
   3.8601384098494063E-002   4.0766243006535988E-002   0.0000000000000000     
   4.1389112013838478E-002   4.5377836699152602E-002   0.0000000000000000     
   4.4113935566082021E-002   5.0170153411180196E-002   0.0000000000000000     
   4.6775854755224687E-002   5.5143193142618771E-002   0.0000000000000000     
   4.9374869581266467E-002   6.0296955893468299E-002   0.0000000000000000     
   6.8252715710003006E-002   6.3747055258051355E-002   0.0000000000000000     
   7.1461546855662167E-002   6.8975078468911585E-002   0.0000000000000000     
   7.4571251487777948E-002   7.4370579017588354E-002   0.0000000000000000     
   7.7581829606350322E-002   7.9933556904081646E-002   0.0000000000000000     
   8.0493281211379303E-002   8.5664012128391476E-002   0.0000000000000000     
   6.3169538171854500E-002   6.2820137987847510E-002   0.0000000000000000     
   6.6156725123079727E-002   6.8050996094827454E-002   0.0000000000000000     
   6.9070454577761176E-002   7.3454174194512140E-002   0.0000000000000000     
   7.1910726535898889E-002   7.9029672286901553E-002   0.0000000000000000     
   7.4677540997492825E-002   8.4777490371995695E-002   0.0000000000000000     
   5.8328837971015575E-002   6.1936149003682391E-002   0.0000000000000000     
   6.1125968958815398E-002   6.7184866730318968E-002   0.0000000000000000     
   6.3856126911156372E-002   7.2608068070322149E-002   0.0000000000000000     
   6.6519311828038483E-002   7.8205753023691885E-002   0.0000000000000000     
   6.9115523709461724E-002   8.3977921590428203E-002   0.0000000000000000     
   5.3730615107486217E-002   6.1095088305555982E-002   0.0000000000000000     
   5.6369278362869223E-002   6.6376690375386141E-002   0.0000000000000000     
   5.8928268487963516E-002   7.1832260645018353E-002   0.0000000000000000     
   6.1407585482769096E-002   7.7461799114452654E-002   0.0000000000000000     
   6.3807229347285985E-002   8.3265305783689028E-002   0.0000000000000000     
   4.9374869581266467E-002   6.0296955893468299E-002   0.0000000000000000     
   5.1886653335241180E-002   6.5626467030028932E-002   0.0000000000000000     
   5.4286879308182601E-002   7.1126751918600781E-002   0.0000000000000000     
   5.6575547500090750E-002   7.6797810559183846E-002   0.0000000000000000     
   5.8752657910965615E-002   8.2639642951778142E-002   0.0000000000000000     
   8.0493281211379303E-002   8.5664012128391476E-002   0.0000000000000000     
   8.3314997093087317E-002   9.1571191030590693E-002   0.0000000000000000     
   8.6056368041696835E-002   9.7664339950752230E-002   0.0000000000000000     
   8.8717394057207813E-002  0.10394345888887599        0.0000000000000000     
   9.1298075139620266E-002  0.11040854784496207        0.0000000000000000     
   7.4677540997492825E-002   8.4777490371995695E-002   0.0000000000000000     
   7.7357732357910700E-002   9.0706831120367717E-002   0.0000000000000000     
   7.9938135012520173E-002   9.6826897202590814E-002   0.0000000000000000     
   8.2418748961321245E-002  0.10313768861866499        0.0000000000000000     
   8.4799574204313916E-002  0.10963920536859020        0.0000000000000000     
   6.9115523709461724E-002   8.3977921590428203E-002   0.0000000000000000     
   7.1627207486828826E-002   8.9932545209360990E-002   0.0000000000000000     
   7.4036808091542505E-002   9.6077595319320169E-002   0.0000000000000000     
   7.6344325523602749E-002  0.10241307192030570        0.0000000000000000     
   7.8549759783009557E-002  0.10893897501231763        0.0000000000000000     
   6.3807229347285985E-002   8.3265305783689028E-002   0.0000000000000000     
   6.6123422479841709E-002   8.9248333297570537E-002   0.0000000000000000     
   6.8352387278763832E-002   9.5416434300940253E-002   0.0000000000000000     
   7.0494123744052298E-002  0.10176960879379818        0.0000000000000000     
   7.2548631875707190E-002  0.10830785677614434        0.0000000000000000     
   5.8752657910965615E-002   8.2639642951778142E-002   0.0000000000000000     
   6.0846377336949364E-002   8.8654195384996345E-002   0.0000000000000000     
   6.2884872574184153E-002   9.4843414147451080E-002   0.0000000000000000     
   6.4868143622669946E-002  0.10120729923914241        0.0000000000000000     
   6.6796190482406800E-002  0.10774585066007029        0.0000000000000000     
   9.1298075139620266E-002  0.11040854784496207        0.0000000000000000     
   9.3779351174439946E-002  0.11703565870520583        0.0000000000000000     
   9.6142162047172589E-002  0.12380084335580277        0.0000000000000000     
   9.8386507757818167E-002  0.13070410179675285        0.0000000000000000     
  0.10051238830637671       0.13774543402805606        0.0000000000000000     
   8.4799574204313916E-002  0.10963920536859020        0.0000000000000000     
   8.7084234888013839E-002  0.11630189615205935        0.0000000000000000     
   8.9276355158936657E-002  0.12309620966876526        0.0000000000000000     
   9.1375935017082355E-002  0.13002214591870789        0.0000000000000000     
   9.3382974462450946E-002  0.13707970490188731        0.0000000000000000     
   7.8549759783009557E-002  0.10893897501231763        0.0000000000000000     
   8.0663818030686965E-002  0.11562641448654380        0.0000000000000000     
   8.2697207427559011E-002  0.12244650023417211        0.0000000000000000     
   8.4649927973625680E-002  0.12939923225520256        0.0000000000000000     
   8.6521979668887014E-002  0.13648461054963507        0.0000000000000000     
   7.2548631875707190E-002  0.10830785677614434        0.0000000000000000     
   7.4518100602459336E-002  0.11500921370865921        0.0000000000000000     
   7.6404718853039677E-002  0.12185171505202334        0.0000000000000000     
   7.8208486627448198E-002  0.12883536080623673        0.0000000000000000     
   7.9929403925684914E-002  0.13596015097129943        0.0000000000000000     
   6.6796190482406800E-002  0.10774585066007029        0.0000000000000000     
   6.8647082603330939E-002  0.11445029381840555        0.0000000000000000     
   7.0398889435378628E-002  0.12131185412231897        0.0000000000000000     
   7.2051610978549882E-002  0.12833053157181051        0.0000000000000000     
   7.3605247232844659E-002  0.13550632616688027        0.0000000000000000     
  0.10051238830637671       0.13774543402805606        0.0000000000000000     
  0.10258540649309300       0.14498827591200225        0.0000000000000000     
  0.10467116511821180       0.15249606331088122        0.0000000000000000     
  0.10676966418173311       0.16026879622469295        0.0000000000000000     
  0.10888090368365694       0.16830647465343745        0.0000000000000000     
   9.3382974462450946E-002  0.13707970490188731        0.0000000000000000     
   9.5306422007688185E-002  0.14429521296908865        0.0000000000000000     
   9.7155226165439854E-002  0.15169499647109716        0.0000000000000000     
   9.8929386935705965E-002  0.15927905540791276        0.0000000000000000     
  0.10062890431848648       0.16704738977953554        0.0000000000000000     
   8.6521979668887014E-002  0.13648461054963507        0.0000000000000000     
   8.8293032855906770E-002  0.14370511921845325        0.0000000000000000     
   8.9942757877248786E-002  0.15106324236264054        0.0000000000000000     
   9.1471154732913063E-002  0.15855897998219692        0.0000000000000000     
   9.2878223422899600E-002  0.16619233207712239        0.0000000000000000     
   7.9929403925684914E-002  0.13596015097129943        0.0000000000000000     
   8.1545239037748740E-002  0.14321799466009605        0.0000000000000000     
   8.3033760253638567E-002  0.15060080098551135        0.0000000000000000     
   8.4394967573354407E-002  0.15810856994754538        0.0000000000000000     
   8.5628860996896275E-002  0.16574130154619804        0.0000000000000000     
   7.3605247232844659E-002  0.13550632616688027        0.0000000000000000     
   7.5063040553214069E-002  0.14283383929401702        0.0000000000000000     
   7.6428233294609196E-002  0.15030767233970962        0.0000000000000000     
   7.7700825457030012E-002  0.15792782530395810        0.0000000000000000     
   7.8880817040476545E-002  0.16569429818676248        0.0000000000000000     
   0.0000000000000000        0.0000000000000000        0.0000000000000000     
   3.1179315091374193E-003   1.9661963152797545E-003   0.0000000000000000     
   6.3572657429193154E-003   4.2949529575899772E-003   0.0000000000000000     
   9.7180027013456863E-003   6.9862699269306675E-003   0.0000000000000000     
   1.3200142384416537E-002   1.0040147223301824E-002   0.0000000000000000     
   0.0000000000000000        0.0000000000000000        0.0000000000000000     
   2.8589287449493120E-003   1.8028135698187901E-003   0.0000000000000000     
   5.7929370838234028E-003   3.9693240740917663E-003   0.0000000000000000     
   8.8020250166222710E-003   6.4995315128189282E-003   0.0000000000000000     
   1.1886192543345919E-002   9.3934358860002752E-003   0.0000000000000000     
   0.0000000000000000        0.0000000000000000        0.0000000000000000     
   2.5996661575497767E-003   1.6635697693443659E-003   0.0000000000000000     
   5.2437122292700884E-003   3.6922574564572865E-003   0.0000000000000000     
   7.9321382151609360E-003   6.0860630613387631E-003   0.0000000000000000     
   1.0664944115222317E-002   8.8449865839887939E-003   0.0000000000000000     
   0.0000000000000000        0.0000000000000000        0.0000000000000000     
   2.3401437469388131E-003   1.5484649138564821E-003   0.0000000000000000     
   4.7095911792593721E-003   3.4637531046865394E-003   0.0000000000000000     
   7.1083422969616793E-003   5.7458645724901732E-003   0.0000000000000000     
   9.5363971000457324E-003   8.3947993172673822E-003   0.0000000000000000     
   0.0000000000000000        0.0000000000000000        0.0000000000000000     
   2.0803615131164211E-003   1.4574990033551383E-003   0.0000000000000000     
   4.1905739337912548E-003   3.2838110187795241E-003   0.0000000000000000     
   6.3306372620245020E-003   5.4789360462731565E-003   0.0000000000000000     
   8.5005514978161636E-003   8.0428740858360381E-003   0.0000000000000000     
   1.3200142384416537E-002   1.0040147223301824E-002   0.0000000000000000     
   1.6696290781307414E-002   1.3346326141253639E-002   0.0000000000000000     
   2.0099053881193873E-002   1.6794547975336301E-002   0.0000000000000000     
   2.3408431684075911E-002   2.0384812725549806E-002   0.0000000000000000     
   2.6624424189953529E-002   2.4117120391894162E-002   0.0000000000000000     
   1.1886192543345919E-002   9.3934358860002752E-003   0.0000000000000000     
   1.4987133737550866E-002   1.2565866218722178E-002   0.0000000000000000     
   1.8046542672793629E-002   1.5931651536070998E-002   0.0000000000000000     
   2.1064419349074204E-002   1.9490791838046737E-002   0.0000000000000000     
   2.4040763766392605E-002   2.3243287124649396E-002   0.0000000000000000     
   1.0664944115222317E-002   8.8449865839887939E-003   0.0000000000000000     
   1.3416937529961363E-002   1.1902461241114441E-002   0.0000000000000000     
   1.6162926059885192E-002   1.5191920249422761E-002   0.0000000000000000     
   1.8902909704993809E-002   1.8713363608913750E-002   0.0000000000000000     
   2.1636888465287211E-002   2.2466791319587419E-002   0.0000000000000000     
   9.5363971000457324E-003   8.3947993172673822E-003   0.0000000000000000     
   1.1985702158538907E-002   1.1356111208430433E-002   0.0000000000000000     
   1.4448204042468570E-002   1.4575354115391591E-002   0.0000000000000000     
   1.6923902751834714E-002   1.8052528038150852E-002   0.0000000000000000     
   1.9412798286637358E-002   2.1787632976708226E-002   0.0000000000000000     
   8.5005514978161636E-003   8.0428740858360381E-003   0.0000000000000000     
   1.0693427623283493E-002   1.0926816120670150E-002   0.0000000000000000     
   1.2902376620543750E-002   1.4081953133977487E-002   0.0000000000000000     
   1.5127398489596933E-002   1.7508285125758041E-002   0.0000000000000000     
   1.7368493230443042E-002   2.1205812096011818E-002   0.0000000000000000     
   2.6624424189953529E-002   2.4117120391894162E-002   0.0000000000000000     
   2.9749959077268871E-002   2.8010187398616611E-002   0.0000000000000000     