 <VTKFile type="UnstructuredGrid"  version="0.1"   >
 <UnstructuredGrid>
 <Piece  NumberOfPoints="          1600 "  NumberOfCells="         1024 ">
 <Points>
 <DataArray  type="Float64" NumberOfComponents="3"  format="ascii" >
   0.0000000000000000        0.0000000000000000        0.0000000000000000     
   3.1250000000000000E-002   0.0000000000000000        0.0000000000000000     
   6.2500000000000000E-002   0.0000000000000000        0.0000000000000000     
   9.3750000000000000E-002   0.0000000000000000        0.0000000000000000     
  0.12500000000000000        0.0000000000000000        0.0000000000000000     
   0.0000000000000000        3.1250000000000000E-002   0.0000000000000000     
   3.1250000000000000E-002   3.1250000000000000E-002   0.0000000000000000     
   6.2500000000000000E-002   3.1250000000000000E-002   0.0000000000000000     
   9.3750000000000000E-002   3.1250000000000000E-002   0.0000000000000000     
  0.12500000000000000        3.1250000000000000E-002   0.0000000000000000     
   0.0000000000000000        6.2500000000000000E-002   0.0000000000000000     
   3.1250000000000000E-002   6.2500000000000000E-002   0.0000000000000000     
   6.2500000000000000E-002   6.2500000000000000E-002   0.0000000000000000     
   9.3750000000000000E-002   6.2500000000000000E-002   0.0000000000000000     
  0.12500000000000000        6.2500000000000000E-002   0.0000000000000000     
   0.0000000000000000        9.3750000000000000E-002   0.0000000000000000     
   3.1250000000000000E-002   9.3750000000000000E-002   0.0000000000000000     
   6.2500000000000000E-002   9.3750000000000000E-002   0.0000000000000000     
   9.3750000000000000E-002   9.3750000000000000E-002   0.0000000000000000     
  0.12500000000000000        9.3750000000000000E-002   0.0000000000000000     
   0.0000000000000000       0.12500000000000000        0.0000000000000000     
   3.1250000000000000E-002  0.12500000000000000        0.0000000000000000     
   6.2500000000000000E-002  0.12500000000000000        0.0000000000000000     
   9.3750000000000000E-002  0.12500000000000000        0.0000000000000000     
  0.12500000000000000       0.12500000000000000        0.0000000000000000     
  0.12500000000000000        0.0000000000000000        0.0000000000000000     
  0.15625000000000000        0.0000000000000000        0.0000000000000000     
  0.18750000000000000        0.0000000000000000        0.0000000000000000     
  0.21875000000000000        0.0000000000000000        0.0000000000000000     
  0.25000000000000000        0.0000000000000000        0.0000000000000000     
  0.12500000000000000        3.1250000000000000E-002   0.0000000000000000     
  0.15625000000000000        3.1250000000000000E-002   0.0000000000000000     
  0.18750000000000000        3.1250000000000000E-002   0.0000000000000000     
  0.21875000000000000        3.1250000000000000E-002   0.0000000000000000     
  0.25000000000000000        3.1250000000000000E-002   0.0000000000000000     
  0.12500000000000000        6.2500000000000000E-002   0.0000000000000000     
  0.15625000000000000        6.2500000000000000E-002   0.0000000000000000     
  0.18750000000000000        6.2500000000000000E-002   0.0000000000000000     
  0.21875000000000000        6.2500000000000000E-002   0.0000000000000000     
  0.25000000000000000        6.2500000000000000E-002   0.0000000000000000     
  0.12500000000000000        9.3750000000000000E-002   0.0000000000000000     
  0.15625000000000000        9.3750000000000000E-002   0.0000000000000000     
  0.18750000000000000        9.3750000000000000E-002   0.0000000000000000     
  0.21875000000000000        9.3750000000000000E-002   0.0000000000000000     
  0.25000000000000000        9.3750000000000000E-002   0.0000000000000000     
  0.12500000000000000       0.12500000000000000        0.0000000000000000     
  0.15625000000000000       0.12500000000000000        0.0000000000000000     
  0.18750000000000000       0.12500000000000000        0.0000000000000000     
  0.21875000000000000       0.12500000000000000        0.0000000000000000     
  0.25000000000000000       0.12500000000000000        0.0000000000000000     
  0.25000000000000000        0.0000000000000000        0.0000000000000000     
  0.28125000000000000        0.0000000000000000        0.0000000000000000     
  0.31250000000000000        0.0000000000000000        0.0000000000000000     
  0.34375000000000000        0.0000000000000000        0.0000000000000000     
  0.37500000000000000        0.0000000000000000        0.0000000000000000     
  0.25000000000000000        3.1250000000000000E-002   0.0000000000000000     
  0.28125000000000000        3.1250000000000000E-002   0.0000000000000000     
  0.31250000000000000        3.1250000000000000E-002   0.0000000000000000     
  0.34375000000000000        3.1250000000000000E-002   0.0000000000000000     
  0.37500000000000000        3.1250000000000000E-002   0.0000000000000000     
  0.25000000000000000        6.2500000000000000E-002   0.0000000000000000     
  0.28125000000000000        6.2500000000000000E-002   0.0000000000000000     
  0.31250000000000000        6.2500000000000000E-002   0.0000000000000000     
  0.34375000000000000        6.2500000000000000E-002   0.0000000000000000     
  0.37500000000000000        6.2500000000000000E-002   0.0000000000000000     
  0.25000000000000000        9.3750000000000000E-002   0.0000000000000000     
  0.28125000000000000        9.3750000000000000E-002   0.0000000000000000     
  0.31250000000000000        9.3750000000000000E-002   0.0000000000000000     
  0.34375000000000000        9.3750000000000000E-002   0.0000000000000000     
  0.37500000000000000        9.3750000000000000E-002   0.0000000000000000     
  0.25000000000000000       0.12500000000000000        0.0000000000000000     
  0.28125000000000000       0.12500000000000000        0.0000000000000000     
  0.31250000000000000       0.12500000000000000        0.0000000000000000     
  0.34375000000000000       0.12500000000000000        0.0000000000000000     
  0.37500000000000000       0.12500000000000000        0.0000000000000000     
  0.37500000000000000        0.0000000000000000        0.0000000000000000     
  0.40625000000000000        0.0000000000000000        0.0000000000000000     
  0.43750000000000000        0.0000000000000000        0.0000000000000000     
  0.46875000000000000        0.0000000000000000        0.0000000000000000     
  0.50000000000000000        0.0000000000000000        0.0000000000000000     
  0.37500000000000000        3.1250000000000000E-002   0.0000000000000000     
  0.40625000000000000        3.1250000000000000E-002   0.0000000000000000     
  0.43750000000000000        3.1250000000000000E-002   0.0000000000000000     
  0.46875000000000000        3.1250000000000000E-002   0.0000000000000000     
  0.50000000000000000        3.1250000000000000E-002   0.0000000000000000     
  0.37500000000000000        6.2500000000000000E-002   0.0000000000000000     
  0.40625000000000000        6.2500000000000000E-002   0.0000000000000000     
  0.43750000000000000        6.2500000000000000E-002   0.0000000000000000     
  0.46875000000000000        6.2500000000000000E-002   0.0000000000000000     
  0.50000000000000000        6.2500000000000000E-002   0.0000000000000000     
  0.37500000000000000        9.3750000000000000E-002   0.0000000000000000     
  0.40625000000000000        9.3750000000000000E-002   0.0000000000000000     
  0.43750000000000000        9.3750000000000000E-002   0.0000000000000000     
  0.46875000000000000        9.3750000000000000E-002   0.0000000000000000     
  0.50000000000000000        9.3750000000000000E-002   0.0000000000000000     
  0.37500000000000000       0.12500000000000000        0.0000000000000000     
  0.40625000000000000       0.12500000000000000        0.0000000000000000     
  0.43750000000000000       0.12500000000000000        0.0000000000000000     
  0.46875000000000000       0.12500000000000000        0.0000000000000000     
  0.50000000000000000       0.12500000000000000        0.0000000000000000     
  0.50000000000000000        0.0000000000000000        0.0000000000000000     
  0.53125000000000000        0.0000000000000000        0.0000000000000000     
  0.56250000000000000        0.0000000000000000        0.0000000000000000     
  0.59375000000000000        0.0000000000000000        0.0000000000000000     
  0.62500000000000000        0.0000000000000000        0.0000000000000000     
  0.50000000000000000        3.1250000000000000E-002   0.0000000000000000     
  0.53125000000000000        3.1250000000000000E-002   0.0000000000000000     
  0.56250000000000000        3.1250000000000000E-002   0.0000000000000000     
  0.59375000000000000        3.1250000000000000E-002   0.0000000000000000     
  0.62500000000000000        3.1250000000000000E-002   0.0000000000000000     
  0.50000000000000000        6.2500000000000000E-002   0.0000000000000000     
  0.53125000000000000        6.2500000000000000E-002   0.0000000000000000     
  0.56250000000000000        6.2500000000000000E-002   0.0000000000000000     
  0.59375000000000000        6.2500000000000000E-002   0.0000000000000000     
  0.62500000000000000        6.2500000000000000E-002   0.0000000000000000     
  0.50000000000000000        9.3750000000000000E-002   0.0000000000000000     
  0.53125000000000000        9.3750000000000000E-002   0.0000000000000000     
  0.56250000000000000        9.3750000000000000E-002   0.0000000000000000     
  0.59375000000000000        9.3750000000000000E-002   0.0000000000000000     
  0.62500000000000000        9.3750000000000000E-002   0.0000000000000000     
  0.50000000000000000       0.12500000000000000        0.0000000000000000     
  0.53125000000000000       0.12500000000000000        0.0000000000000000     
  0.56250000000000000       0.12500000000000000        0.0000000000000000     
[...]
 <PointData>
 <DataArray  type="Float64" Name="disp" NumberOfComponents="3" format="ascii">
   0.0000000000000000        0.0000000000000000        0.0000000000000000     
   6.0961257204023064E-003   3.7908791009707505E-003   0.0000000000000000     
   1.1666120293416588E-002   7.3244439839789130E-003   0.0000000000000000     
   1.6709983719042844E-002   1.0600694649024488E-002   0.0000000000000000     
   2.1227715997281078E-002   1.3619631096107475E-002   0.0000000000000000     
   0.0000000000000000        0.0000000000000000        0.0000000000000000     
   4.8911714202001036E-003   3.0224289362923819E-003   0.0000000000000000     
   9.5735977827176195E-003   6.0609569325281217E-003   0.0000000000000000     
   1.4047279087552548E-002   9.1155839887072203E-003   0.0000000000000000     
   1.8312215334704889E-002   1.2186310104829675E-002   0.0000000000000000     
   0.0000000000000000        0.0000000000000000        0.0000000000000000     
   3.9535086154889494E-003   2.4253003729296520E-003   0.0000000000000000     
   7.9105065634693557E-003   5.0632065571824640E-003   0.0000000000000000     
   1.1870993843941224E-002   7.9137185527584364E-003   0.0000000000000000     
   1.5834970456904549E-002   1.0976836359657570E-002   0.0000000000000000     
   0.0000000000000000        0.0000000000000000        0.0000000000000000     
   3.2831373062688421E-003   1.9994934108825604E-003   0.0000000000000000     
   6.6768466356718001E-003   4.3311928579419408E-003   0.0000000000000000     
   1.0181127988208874E-002   6.9950983411781404E-003   0.0000000000000000     
   1.3795981363880059E-002   9.9912098605911583E-003   0.0000000000000000     
   0.0000000000000000        0.0000000000000000        0.0000000000000000     
   2.8800574925397834E-003   1.7450080501511074E-003   0.0000000000000000     
   5.8726179993249476E-003   3.8649158348065512E-003   0.0000000000000000     
   8.9776815203554926E-003   6.3597233539663305E-003   0.0000000000000000     
   1.2195248055631418E-002   9.2294306076304462E-003   0.0000000000000000     
   2.1227715997281078E-002   1.3619631096107475E-002   0.0000000000000000     
   2.5432458540611515E-002   1.6612281716050031E-002   0.0000000000000000     
   2.9537352761514396E-002   1.9809674899674320E-002   0.0000000000000000     
   3.3542398659989717E-002   2.3211810646980340E-002   0.0000000000000000     
   3.7447596236037467E-002   2.6818688957968087E-002   0.0000000000000000     
   1.8312215334704889E-002   1.2186310104829675E-002   0.0000000000000000     
   2.2406682329441100E-002   1.5341703826373844E-002   0.0000000000000000     
   2.6368955877027651E-002   1.8650333698818092E-002   0.0000000000000000     
   3.0199035977464535E-002   2.2112199722162412E-002   0.0000000000000000     
   3.3896922630751752E-002   2.5727301896406811E-002   0.0000000000000000     
   1.5834970456904549E-002   1.0976836359657570E-002   0.0000000000000000     
   1.9730612563461172E-002   1.4211474734630795E-002   0.0000000000000000     
   2.3486096324712935E-002   1.7576548434429039E-002   0.0000000000000000     
   2.7101421740659826E-002   2.1072057459052308E-002   0.0000000000000000     
   3.0576588811301854E-002   2.4698001808500600E-002   0.0000000000000000     
   1.3795981363880059E-002   9.9912098605911583E-003   0.0000000000000000     
   1.7404249242671723E-002   1.3221594440820878E-002   0.0000000000000000     
   2.0888774104570233E-002   1.6588319106507165E-002   0.0000000000000000     
   2.4249555949575580E-002   2.0091383857650028E-002   0.0000000000000000     
   2.7486594777687782E-002   2.3730788694249466E-002   0.0000000000000000     
   1.2195248055631418E-002   9.2294306076304462E-003   0.0000000000000000     
   1.5427592367072763E-002   1.2372062944944095E-002   0.0000000000000000     
   1.8576989216599563E-002   1.5685645715052470E-002   0.0000000000000000     
   2.1643438604211817E-002   1.9170178917955579E-002   0.0000000000000000     
   2.4626940529909529E-002   2.2825662553653408E-002   0.0000000000000000     
   3.7447596236037467E-002   2.6818688957968087E-002   0.0000000000000000     
   4.1256392883223858E-002   3.0624737951426638E-002   0.0000000000000000     
   4.4972235995115052E-002   3.4624385746145070E-002   0.0000000000000000     
   4.8595125571711070E-002   3.8817632342123376E-002   0.0000000000000000     
   5.2125061613011905E-002   4.3204477739361556E-002   0.0000000000000000     
   3.3896922630751752E-002   2.5727301896406811E-002   0.0000000000000000     
   3.7485463202723453E-002   2.9523994080529740E-002   0.0000000000000000     
   4.0987505059213808E-002   3.3530630133509660E-002   0.0000000000000000     
   4.4403048200222804E-002   3.7747210055346592E-002   0.0000000000000000     
   4.7732092625750427E-002   4.2173733846040506E-002   0.0000000000000000     
   3.0576588811301854E-002   2.4698001808500600E-002   0.0000000000000000     
   3.3941037619911935E-002   2.8498710021733140E-002   0.0000000000000000     
   3.7224208249762997E-002   3.2518510637709157E-002   0.0000000000000000     
   4.0426100700855012E-002   3.6757403656428649E-002   0.0000000000000000     
   4.3546714973188003E-002   4.1215389077891622E-002   0.0000000000000000     
   2.7486594777687782E-002   2.3730788694249466E-002   0.0000000000000000     
   3.0623116134789297E-002   2.7548885775036846E-002   0.0000000000000000     
   3.3682345566762605E-002   3.1588027258743545E-002   0.0000000000000000     
   3.6664283073607709E-002   3.5848213145369567E-002   0.0000000000000000     
   3.9568928655324617E-002   4.0329443434914895E-002   0.0000000000000000     
   2.4626940529909529E-002   2.2825662553653408E-002   0.0000000000000000     
   2.7531698747355525E-002   2.6674521340440866E-002   0.0000000000000000     
   3.0361917010212652E-002   3.0739179996612836E-002   0.0000000000000000     
   3.3117595318480894E-002   3.5019638522169327E-002   0.0000000000000000     
   3.5798733672160264E-002   3.9515896917110327E-002   0.0000000000000000     
   5.2125061613011905E-002   4.3204477739361556E-002   0.0000000000000000     
   5.5562220570312071E-002   4.7791241155251768E-002   0.0000000000000000     
   5.8906778894906073E-002   5.2584241807186162E-002   0.0000000000000000     
   6.2158736586793911E-002   5.7583479695164731E-002   0.0000000000000000     
   6.5318093645975600E-002   6.2788954819187490E-002   0.0000000000000000     
   4.7732092625750427E-002   4.2173733846040506E-002   0.0000000000000000     
   5.0971458704696729E-002   4.6804488266006639E-002   0.0000000000000000     
   5.4117966805961711E-002   5.1633760075660194E-002   0.0000000000000000     
   5.7171616929545359E-002   5.6661549275001194E-002   0.0000000000000000     
   6.0132409075447688E-002   6.1887855864029603E-002   0.0000000000000000     
   4.3546714973188003E-002   4.1215389077891622E-002   0.0000000000000000     
   4.6581678617724796E-002   4.5880237764965373E-002   0.0000000000000000     
   4.9526619185428208E-002   5.0739720580517275E-002   0.0000000000000000     
   5.2381536676298232E-002   5.5793837524547259E-002   0.0000000000000000     
   5.5146431090334874E-002   6.1042588597055400E-002   0.0000000000000000     
   3.9568928655324617E-002   4.0329443434914895E-002   0.0000000000000000     
   4.2392880309396266E-002   4.5018489652128006E-002   0.0000000000000000     
   4.5132736033305573E-002   4.9902123321757370E-002   0.0000000000000000     
   4.7788495827052545E-002   5.4980344443802974E-002   0.0000000000000000     
   5.0360159690637202E-002   6.0253153018264852E-002   0.0000000000000000     
   3.5798733672160264E-002   3.9515896917110327E-002   0.0000000000000000     
   3.8405063779711111E-002   4.4219243927494510E-002   0.0000000000000000     
   4.0936317349593791E-002   4.9120968299380507E-002   0.0000000000000000     
   4.3392494381808297E-002   5.4221070032768319E-002   0.0000000000000000     
   4.5773594876354629E-002   5.9519549127657972E-002   0.0000000000000000     
   6.5318093645975600E-002   6.2788954819187490E-002   0.0000000000000000     
   6.8382257975893923E-002   6.8185422853925301E-002   0.0000000000000000     
   7.1348637479991692E-002   7.3757639474049064E-002   0.0000000000000000     
   7.4217232158268892E-002   7.9505604679558778E-002   0.0000000000000000     
   7.6988042010725538E-002   8.5429318470454430E-002   0.0000000000000000     
   6.0132409075447688E-002   6.1887855864029603E-002   0.0000000000000000     
   6.3002076344180313E-002   6.7303271478211968E-002   0.0000000000000000     
   6.5782351836254860E-002   7.2898387753014771E-002   0.0000000000000000     
   6.8473235551671341E-002   7.8673204688438012E-002   0.0000000000000000     
   7.1074727490429729E-002   8.4627722284481718E-002   0.0000000000000000     
   5.5146431090334874E-002   6.1042588597055400E-002   0.0000000000000000     
   5.7825163871198682E-002   6.6479528147603772E-002   0.0000000000000000     
   6.0421596462550159E-002   7.2098210525754478E-002   0.0000000000000000     
   6.2935728864389293E-002   7.7898635731507612E-002   0.0000000000000000     
   6.5367561076716138E-002   8.3880803764863093E-002   0.0000000000000000     
   5.0360159690637202E-002   6.0253153018264852E-002   0.0000000000000000     
   5.2851520556949028E-002   6.5714192862100701E-002   0.0000000000000000     
   5.5266371358877575E-002   7.1357107792268268E-002   0.0000000000000000     
   5.7604712096422796E-002   7.7181897808767552E-002   0.0000000000000000     
   5.9866542769584731E-002   8.3188562911598568E-002   0.0000000000000000     
   4.5773594876354629E-002   5.9519549127657972E-002   0.0000000000000000     
   4.8081146401431372E-002   6.5007265621702781E-002   0.0000000000000000     
   5.0316676525237101E-002   7.0675079552556072E-002   0.0000000000000000     
   5.2480185247771829E-002   7.6522990920217845E-002   0.0000000000000000     
   5.4571672569035543E-002   8.2550999724688115E-002   0.0000000000000000     
   7.6988042010725538E-002   8.5429318470454430E-002   0.0000000000000000     
   7.9660741696327392E-002   9.1517816930087800E-002   0.0000000000000000     
   8.2235005874040285E-002   9.7760136141810644E-002   0.0000000000000000     
   8.4710834543864189E-002  0.10415627610562299        0.0000000000000000     
   8.7088227705799104E-002  0.11070623682152481        0.0000000000000000     
   7.1074727490429729E-002   8.4627722284481718E-002   0.0000000000000000     
   7.3585000042454315E-002   9.0749385247896816E-002   0.0000000000000000     
   7.6002225597669337E-002   9.7025638285434215E-002   0.0000000000000000     
   7.8326404156074808E-002  0.10345648139709394        0.0000000000000000     
   8.0557535717670742E-002  0.11004191458287600        0.0000000000000000     
   6.5367561076716138E-002   8.3880803764863093E-002   0.0000000000000000     
   6.7714451623139993E-002   9.0031431884078722E-002   0.0000000000000000     
   6.9973759027270266E-002   9.6337237347412299E-002   0.0000000000000000     
   7.2145483289106915E-002  0.10279822015486385        0.0000000000000000     
   7.4229624408649983E-002  0.10941438030643334        0.0000000000000000     
   5.9866542769584731E-002   8.3188562911598568E-002   0.0000000000000000     
   6.2049096438384452E-002   8.9363956838633615E-002   0.0000000000000000     
   6.4149606162843043E-002   9.5694933327745008E-002   0.0000000000000000     
   6.6168071942960496E-002  0.10218149237893273        0.0000000000000000     
   6.8104493778736827E-002  0.10882363399219684        0.0000000000000000     
   5.4571672569035543E-002   8.2550999724688115E-002   0.0000000000000000     
   5.6588934488187678E-002   8.8746960111561413E-002   0.0000000000000000     
   5.8529767004387681E-002   9.5098726226432242E-002   0.0000000000000000     
   6.0394170117635544E-002  0.10160629806930059        0.0000000000000000     
   6.2182143827931260E-002  0.10826967564016650        0.0000000000000000     
   8.7088227705799104E-002  0.11070623682152481        0.0000000000000000     
   8.9376558568529024E-002  0.11741059814848681        0.0000000000000000     
   9.1585200340737943E-002  0.12426993994547969        0.0000000000000000     
   9.3714153022425861E-002  0.13128426221250347        0.0000000000000000     
   9.5763416613592778E-002  0.13845356494955810        0.0000000000000000     
   8.0557535717670742E-002  0.11004191458287600        0.0000000000000000     
   8.2700060755853191E-002  0.11677626924405565        0.0000000000000000     
   8.4758419744018210E-002  0.12365387678190820        0.0000000000000000     
   8.6732612682165838E-002  0.13067473719643363        0.0000000000000000     
   8.8622639570296036E-002  0.13783885048763195        0.0000000000000000     
   7.4229624408649983E-002  0.10941438030643334        0.0000000000000000     
   7.6227892183842599E-002  0.11617654534336432        0.0000000000000000     
   7.8141996412627895E-002  0.12307554280690031        0.0000000000000000     
   7.9971937095005899E-002  0.13011137269704132        0.0000000000000000     
   8.1717714230976582E-002  0.13728403501378733        0.0000000000000000     
   6.8104493778736827E-002  0.10882363399219684        0.0000000000000000     
   6.9960052852497248E-002  0.11561142644641278        0.0000000000000000     
   7.1735930346566987E-002  0.12253493802045601        0.0000000000000000     
   7.3432126260946029E-002  0.12959416871432652        0.0000000000000000     
   7.5048640595634375E-002  0.13678911852802436        0.0000000000000000     
   6.2182143827931260E-002  0.10826967564016650        0.0000000000000000     
   6.3896542761817138E-002  0.11508091255320105        0.0000000000000000     
   6.5540221545835470E-002  0.12203206242257529        0.0000000000000000     
   6.7113180179986243E-002  0.12912312524828928        0.0000000000000000     
   6.8615418664269470E-002  0.13635410103034296        0.0000000000000000     
   9.5763416613592778E-002  0.13845356494955810        0.0000000000000000     
   9.7710240571650814E-002  0.14572911335917843        0.0000000000000000     
   9.9531874354012104E-002  0.15306217264389924        0.0000000000000000     
  0.10122831796067663       0.16045274280372054        0.0000000000000000     
  0.10279957139164443       0.16790082383864230        0.0000000000000000     
   8.8622639570296036E-002  0.13783885048763195        0.0000000000000000     
   9.0420686651166135E-002  0.14512025049558436        0.0000000000000000     
   9.2118940167533400E-002  0.15249297106037218        0.0000000000000000     
   9.3717400119397873E-002  0.15995701218199540        0.0000000000000000     
   9.5216066506759539E-002  0.16751237386045398        0.0000000000000000     
   8.1717714230976582E-002  0.13728403501378733        0.0000000000000000     
   8.3380395431333090E-002  0.14457971096378053        0.0000000000000000     
   8.4961048306868597E-002  0.15198458175366300        0.0000000000000000     
   8.6459672857583089E-002  0.15949864738343475        0.0000000000000000     
   8.7876269083476552E-002  0.16712190785309583        0.0000000000000000     
   7.5048640595634375E-002  0.13678911852802436        0.0000000000000000     
   7.6589366912151707E-002  0.14410749476376697        0.0000000000000000     
   7.8058198772017681E-002  0.15153700472377174        0.0000000000000000     
   7.9455136175232283E-002  0.15907764840803873        0.0000000000000000     
   8.0780179121795512E-002  0.16672942581656791        0.0000000000000000     
   6.8615418664269470E-002  0.13635410103034296        0.0000000000000000     
   7.0047601093621972E-002  0.14370360189554357        0.0000000000000000     
   7.1410391562980638E-002  0.15115023997069832        0.0000000000000000     
   7.2703790072345439E-002  0.15869401525580726        0.0000000000000000     
   7.3927796621716391E-002  0.16633492775087025        0.0000000000000000     
   0.0000000000000000        0.0000000000000000        0.0000000000000000     
   2.8800574925397834E-003   1.7450080501511074E-003   0.0000000000000000     
   5.8726179993249476E-003   3.8649158348065512E-003   0.0000000000000000     
   8.9776815203554926E-003   6.3597233539663305E-003   0.0000000000000000     
   1.2195248055631418E-002   9.2294306076304462E-003   0.0000000000000000     
   0.0000000000000000        0.0000000000000000        0.0000000000000000     
   2.6103818943412609E-003   1.5891317331773425E-003   0.0000000000000000     
   5.2897917676438186E-003   3.5570048027904594E-003   0.0000000000000000     
   8.0382296199076747E-003   5.9036192088393509E-003   0.0000000000000000     
   1.0855695451132828E-002   8.6289749513240172E-003   0.0000000000000000     
   0.0000000000000000        0.0000000000000000        0.0000000000000000     
   2.3402232317127629E-003   1.4591519024033147E-003   0.0000000000000000     
   4.7203390538434311E-003   3.3000890769078295E-003   0.0000000000000000     
   7.1403474663920058E-003   5.5228115235135449E-003   0.0000000000000000     
   9.6002484693584848E-003   8.1273192422204599E-003   0.0000000000000000     
   0.0000000000000000        0.0000000000000000        0.0000000000000000     
   2.0695815046542897E-003   1.3550685578290244E-003   0.0000000000000000     
   4.1642598579237858E-003   3.0941686571586617E-003   0.0000000000000000     
   6.2840350598084866E-003   5.2173002979889133E-003   0.0000000000000000     
   8.4289071103083937E-003   7.7244634803197770E-003   0.0000000000000000     
   0.0000000000000000        0.0000000000000000        0.0000000000000000     
   1.7984567131658418E-003   1.2768816994544714E-003   0.0000000000000000     
   3.6215541798848808E-003   2.9392435435429565E-003   0.0000000000000000     
   5.4692924001571172E-003   4.9870855322654535E-003   0.0000000000000000     
   7.3416713739825517E-003   7.4204076656219651E-003   0.0000000000000000     
   1.2195248055631418E-002   9.2294306076304462E-003   0.0000000000000000     
   1.5427592367072763E-002   1.2372062944944095E-002   0.0000000000000000     
   1.8576989216599563E-002   1.5685645715052470E-002   0.0000000000000000     
   2.1643438604211817E-002   1.9170178917955579E-002   0.0000000000000000     
   2.4626940529909529E-002   2.2825662553653408E-002   0.0000000000000000     
   1.0855695451132828E-002   8.6289749513240172E-003   0.0000000000000000     
   1.3688961265921963E-002   1.1650963859378825E-002   0.0000000000000000     
   1.6484799068877763E-002   1.4887477762138147E-002   0.0000000000000000     
   1.9243208860000225E-002   1.8338516659601980E-002   0.0000000000000000     
   2.1964190639289352E-002   2.2004080551770323E-002   0.0000000000000000     
   9.6002484693584848E-003   8.1273192422204599E-003   0.0000000000000000     
   1.2076675268477001E-002   1.1046380796503450E-002   0.0000000000000000     
   1.4546261069481675E-002   1.4212764749837388E-002   0.0000000000000000     
   1.7009005872372515E-002   1.7626471102222270E-002   0.0000000000000000     
   1.9464909677149516E-002   2.1287499853658111E-002   0.0000000000000000     
   8.4289071103083937E-003   7.7244634803197770E-003   0.0000000000000000     
   1.0590734374737879E-002   1.0558313756317968E-002   0.0000000000000000     
   1.2761375218411308E-002   1.3661506678150194E-002   0.0000000000000000     
   1.4940829641328686E-002   1.7034042245816464E-002   0.0000000000000000     
   1.7129097643490011E-002   2.0675920459316773E-002   0.0000000000000000     
   7.3416713739825517E-003   7.4204076656219651E-003   0.0000000000000000     
   9.2311385847045936E-003   1.0186762738822375E-002   0.0000000000000000     
   1.1130141515666657E-002   1.3233703547076569E-002   0.0000000000000000     
   1.3038680166868740E-002   1.6561230090384543E-002   0.0000000000000000     
   1.4956754538310843E-002   2.0169342368746304E-002   0.0000000000000000     
   2.4626940529909529E-002   2.2825662553653408E-002   0.0000000000000000     
   2.7531698747355525E-002   2.6674521340440866E-002   0.0000000000000000     