 <VTKFile type="UnstructuredGrid"  version="0.1"   >
 <UnstructuredGrid>
 <Piece  NumberOfPoints="          1600 "  NumberOfCells="         1024 ">
 <Points>
 <DataArray  type="Float64" NumberOfComponents="3"  format="ascii" >
   0.0000000000000000        0.0000000000000000        0.0000000000000000     
   3.1250000000000000E-002   0.0000000000000000        0.0000000000000000     
   6.2500000000000000E-002   0.0000000000000000        0.0000000000000000     
   9.3750000000000000E-002   0.0000000000000000        0.0000000000000000     
  0.12500000000000000        0.0000000000000000        0.0000000000000000     
   0.0000000000000000        3.1250000000000000E-002   0.0000000000000000     
   3.1250000000000000E-002   3.1250000000000000E-002   0.0000000000000000     
   6.2500000000000000E-002   3.1250000000000000E-002   0.0000000000000000     
   9.3750000000000000E-002   3.1250000000000000E-002   0.0000000000000000     
  0.12500000000000000        3.1250000000000000E-002   0.0000000000000000     
   0.0000000000000000        6.2500000000000000E-002   0.0000000000000000     
   3.1250000000000000E-002   6.2500000000000000E-002   0.0000000000000000     
   6.2500000000000000E-002   6.2500000000000000E-002   0.0000000000000000     
   9.3750000000000000E-002   6.2500000000000000E-002   0.0000000000000000     
  0.12500000000000000        6.2500000000000000E-002   0.0000000000000000     
   0.0000000000000000        9.3750000000000000E-002   0.0000000000000000     
   3.1250000000000000E-002   9.3750000000000000E-002   0.0000000000000000     
   6.2500000000000000E-002   9.3750000000000000E-002   0.0000000000000000     
   9.3750000000000000E-002   9.3750000000000000E-002   0.0000000000000000     
  0.12500000000000000        9.3750000000000000E-002   0.0000000000000000     
   0.0000000000000000       0.12500000000000000        0.0000000000000000     
   3.1250000000000000E-002  0.12500000000000000        0.0000000000000000     
   6.2500000000000000E-002  0.12500000000000000        0.0000000000000000     
   9.3750000000000000E-002  0.12500000000000000        0.0000000000000000     
  0.12500000000000000       0.12500000000000000        0.0000000000000000     
  0.12500000000000000        0.0000000000000000        0.0000000000000000     
  0.15625000000000000        0.0000000000000000        0.0000000000000000     
  0.18750000000000000        0.0000000000000000        0.0000000000000000     
  0.21875000000000000        0.0000000000000000        0.0000000000000000     
  0.25000000000000000        0.0000000000000000        0.0000000000000000     
  0.12500000000000000        3.1250000000000000E-002   0.0000000000000000     
  0.15625000000000000        3.1250000000000000E-002   0.0000000000000000     
  0.18750000000000000        3.1250000000000000E-002   0.0000000000000000     
  0.21875000000000000        3.1250000000000000E-002   0.0000000000000000     
  0.25000000000000000        3.1250000000000000E-002   0.0000000000000000     
  0.12500000000000000        6.2500000000000000E-002   0.0000000000000000     
  0.15625000000000000        6.2500000000000000E-002   0.0000000000000000     
  0.18750000000000000        6.2500000000000000E-002   0.0000000000000000     
  0.21875000000000000        6.2500000000000000E-002   0.0000000000000000     
  0.25000000000000000        6.2500000000000000E-002   0.0000000000000000     
  0.12500000000000000        9.3750000000000000E-002   0.0000000000000000     
  0.15625000000000000        9.3750000000000000E-002   0.0000000000000000     
  0.18750000000000000        9.3750000000000000E-002   0.0000000000000000     
  0.21875000000000000        9.3750000000000000E-002   0.0000000000000000     
  0.25000000000000000        9.3750000000000000E-002   0.0000000000000000     
  0.12500000000000000       0.12500000000000000        0.0000000000000000     
  0.15625000000000000       0.12500000000000000        0.0000000000000000     
  0.18750000000000000       0.12500000000000000        0.0000000000000000     
  0.21875000000000000       0.12500000000000000        0.0000000000000000     
  0.25000000000000000       0.12500000000000000        0.0000000000000000     
  0.25000000000000000        0.0000000000000000        0.0000000000000000     
  0.28125000000000000        0.0000000000000000        0.0000000000000000     
  0.31250000000000000        0.0000000000000000        0.0000000000000000     
  0.34375000000000000        0.0000000000000000        0.0000000000000000     
  0.37500000000000000        0.0000000000000000        0.0000000000000000     
  0.25000000000000000        3.1250000000000000E-002   0.0000000000000000     
  0.28125000000000000        3.1250000000000000E-002   0.0000000000000000     
  0.31250000000000000        3.1250000000000000E-002   0.0000000000000000     
  0.34375000000000000        3.1250000000000000E-002   0.0000000000000000     
  0.37500000000000000        3.1250000000000000E-002   0.0000000000000000     
  0.25000000000000000        6.2500000000000000E-002   0.0000000000000000     
  0.28125000000000000        6.2500000000000000E-002   0.0000000000000000     
  0.31250000000000000        6.2500000000000000E-002   0.0000000000000000     
  0.34375000000000000        6.2500000000000000E-002   0.0000000000000000     
  0.37500000000000000        6.2500000000000000E-002   0.0000000000000000     
  0.25000000000000000        9.3750000000000000E-002   0.0000000000000000     
  0.28125000000000000        9.3750000000000000E-002   0.0000000000000000     
  0.31250000000000000        9.3750000000000000E-002   0.0000000000000000     
  0.34375000000000000        9.3750000000000000E-002   0.0000000000000000     
  0.37500000000000000        9.3750000000000000E-002   0.0000000000000000     
  0.25000000000000000       0.12500000000000000        0.0000000000000000     
  0.28125000000000000       0.12500000000000000        0.0000000000000000     
  0.31250000000000000       0.12500000000000000        0.0000000000000000     
  0.34375000000000000       0.12500000000000000        0.0000000000000000     
  0.37500000000000000       0.12500000000000000        0.0000000000000000     
  0.37500000000000000        0.0000000000000000        0.0000000000000000     
  0.40625000000000000        0.0000000000000000        0.0000000000000000     
  0.43750000000000000        0.0000000000000000        0.0000000000000000     
  0.46875000000000000        0.0000000000000000        0.0000000000000000     
  0.50000000000000000        0.0000000000000000        0.0000000000000000     
  0.37500000000000000        3.1250000000000000E-002   0.0000000000000000     
  0.40625000000000000        3.1250000000000000E-002   0.0000000000000000     
  0.43750000000000000        3.1250000000000000E-002   0.0000000000000000     
  0.46875000000000000        3.1250000000000000E-002   0.0000000000000000     
  0.50000000000000000        3.1250000000000000E-002   0.0000000000000000     
  0.37500000000000000        6.2500000000000000E-002   0.0000000000000000     
  0.40625000000000000        6.2500000000000000E-002   0.0000000000000000     
  0.43750000000000000        6.2500000000000000E-002   0.0000000000000000     
  0.46875000000000000        6.2500000000000000E-002   0.0000000000000000     
  0.50000000000000000        6.2500000000000000E-002   0.0000000000000000     
  0.37500000000000000        9.3750000000000000E-002   0.0000000000000000     
  0.40625000000000000        9.3750000000000000E-002   0.0000000000000000     
  0.43750000000000000        9.3750000000000000E-002   0.0000000000000000     
  0.46875000000000000        9.3750000000000000E-002   0.0000000000000000     
  0.50000000000000000        9.3750000000000000E-002   0.0000000000000000     
  0.37500000000000000       0.12500000000000000        0.0000000000000000     
  0.40625000000000000       0.12500000000000000        0.0000000000000000     
  0.43750000000000000       0.12500000000000000        0.0000000000000000     
  0.46875000000000000       0.12500000000000000        0.0000000000000000     
  0.50000000000000000       0.12500000000000000        0.0000000000000000     
  0.50000000000000000        0.0000000000000000        0.0000000000000000     
  0.53125000000000000        0.0000000000000000        0.0000000000000000     
  0.56250000000000000        0.0000000000000000        0.0000000000000000     
  0.59375000000000000        0.0000000000000000        0.0000000000000000     
  0.62500000000000000        0.0000000000000000        0.0000000000000000     
  0.50000000000000000        3.1250000000000000E-002   0.0000000000000000     
  0.53125000000000000        3.1250000000000000E-002   0.0000000000000000     
  0.56250000000000000        3.1250000000000000E-002   0.0000000000000000     
  0.59375000000000000        3.1250000000000000E-002   0.0000000000000000     
  0.62500000000000000        3.1250000000000000E-002   0.0000000000000000     
  0.50000000000000000        6.2500000000000000E-002   0.0000000000000000     
  0.53125000000000000        6.2500000000000000E-002   0.0000000000000000     
  0.56250000000000000        6.2500000000000000E-002   0.0000000000000000     
  0.59375000000000000        6.2500000000000000E-002   0.0000000000000000     
  0.62500000000000000        6.2500000000000000E-002   0.0000000000000000     
  0.50000000000000000        9.3750000000000000E-002   0.0000000000000000     
  0.53125000000000000        9.3750000000000000E-002   0.0000000000000000     
  0.56250000000000000        9.3750000000000000E-002   0.0000000000000000     
  0.59375000000000000        9.3750000000000000E-002   0.0000000000000000     
  0.62500000000000000        9.3750000000000000E-002   0.0000000000000000     
  0.50000000000000000       0.12500000000000000        0.0000000000000000     
  0.53125000000000000       0.12500000000000000        0.0000000000000000     
  0.56250000000000000       0.12500000000000000        0.0000000000000000     
[...]
 <PointData>
 <DataArray  type="Float64" Name="disp" NumberOfComponents="3" format="ascii">
   0.0000000000000000        0.0000000000000000        0.0000000000000000     
  -1.6630749577234694E-002  -1.0598636265285483E-002   0.0000000000000000     
  -3.1808623557821832E-002  -2.1246220950915364E-002   0.0000000000000000     
  -4.5533621941761415E-002  -3.1942754056889650E-002   0.0000000000000000     
  -5.7805744729053449E-002  -4.2688235583208334E-002   0.0000000000000000     
   0.0000000000000000        0.0000000000000000        0.0000000000000000     
  -1.2748267773133020E-002  -8.4091690532603694E-003   0.0000000000000000     
  -2.4863077231438747E-002  -1.7761011161209494E-002   0.0000000000000000     
  -3.6344428374917165E-002  -2.8055526323847366E-002   0.0000000000000000     
  -4.7192321203568297E-002  -3.9292714541174001E-002   0.0000000000000000     
   0.0000000000000000        0.0000000000000000        0.0000000000000000     
  -9.7833728323076415E-003  -6.8231447276296472E-003   0.0000000000000000     
  -1.9471581684815047E-002  -1.5130525386876759E-002   0.0000000000000000     
  -2.9064626557522216E-002  -2.4922141977741334E-002   0.0000000000000000     
  -3.8562507450429148E-002  -3.6197994500223367E-002   0.0000000000000000     
   0.0000000000000000        0.0000000000000000        0.0000000000000000     
  -7.7360647547585551E-003  -5.8405632883933179E-003   0.0000000000000000     
  -1.5634136917950740E-002  -1.3354763627917165E-002   0.0000000000000000     
  -2.3694216489576553E-002  -2.2542601018571546E-002   0.0000000000000000     
  -3.1916303469635997E-002  -3.3404075460356453E-002   0.0000000000000000     
   0.0000000000000000        0.0000000000000000        0.0000000000000000     
  -6.6063435404857618E-003  -5.4614247355513814E-003   0.0000000000000000     
  -1.3350742930845823E-002  -1.2433725884330712E-002   0.0000000000000000     
  -2.0233198171080182E-002  -2.0916903446338002E-002   0.0000000000000000     
  -2.7253709261188842E-002  -3.0910957421573231E-002   0.0000000000000000     
  -5.7805744729053449E-002  -4.2688235583208334E-002   0.0000000000000000     
  -6.8451194401970838E-002  -5.3948324001653308E-002   0.0000000000000000     
  -7.7296173442786512E-002  -6.6188677784006472E-002   0.0000000000000000     
  -8.4340681851500482E-002  -7.9409296930267811E-002   0.0000000000000000     
  -8.9584719628112736E-002  -9.3610181440437340E-002   0.0000000000000000     
  -4.7192321203568297E-002  -3.9292714541174001E-002   0.0000000000000000     
  -5.7122220481957892E-002  -5.1337872219393850E-002   0.0000000000000000     
  -6.5849590974651720E-002  -6.4056295764711363E-002   0.0000000000000000     
  -7.3374432681649795E-002  -7.7447985177126560E-002   0.0000000000000000     
  -7.9696745602952104E-002  -9.1512940456639436E-002   0.0000000000000000     
  -3.8562507450429148E-002  -3.6197994500223367E-002   0.0000000000000000     
  -4.7684204392639297E-002  -4.8534874229972623E-002   0.0000000000000000     
  -5.6148697413256142E-002  -6.1509572442638834E-002   0.0000000000000000     
  -6.3955986512279656E-002  -7.5122089138221992E-002   0.0000000000000000     
  -7.1106071689709852E-002  -8.9372424316722099E-002   0.0000000000000000     
  -3.1916303469635997E-002  -3.3404075460356453E-002   0.0000000000000000     
  -4.0137146134015068E-002  -4.5539330033389634E-002   0.0000000000000000     
  -4.8193492758599757E-002  -5.8548507817788850E-002   0.0000000000000000     
  -5.6085343343390083E-002  -7.2431608813554108E-002   0.0000000000000000     
  -6.3812697888386033E-002  -8.7188633020685385E-002   0.0000000000000000     
  -2.7253709261188842E-002  -3.0910957421573231E-002   0.0000000000000000     
  -3.4481045706085178E-002  -4.2351239629644891E-002   0.0000000000000000     
  -4.1983977010682585E-002  -5.5173101890161440E-002   0.0000000000000000     
  -4.9762503174981057E-002  -6.9376544203122892E-002   0.0000000000000000     
  -5.7816624198980593E-002  -8.4961566568529212E-002   0.0000000000000000     
  -8.9584719628112736E-002  -9.3610181440437340E-002   0.0000000000000000     
  -9.4523617123874387E-002 -0.10757361955023526        0.0000000000000000     
 -0.10065270469003654      -0.12008189949538182        0.0000000000000000     
 -0.10797198232659916      -0.13113502127587703        0.0000000000000000     
 -0.11648145003356229      -0.14073298489172087        0.0000000000000000     
  -7.9696745602952104E-002  -9.1512940456639436E-002   0.0000000000000000     
  -8.5024132792888313E-002 -0.10544117643690136        0.0000000000000000     
  -8.9564197305788087E-002 -0.11842270795156375        0.0000000000000000     
  -9.3316939141651442E-002 -0.13045753500062657        0.0000000000000000     
  -9.6282358300478349E-002 -0.14154565758408982        0.0000000000000000     
  -7.1106071689709852E-002  -8.9372424316722099E-002   0.0000000000000000     
  -7.6891253054242117E-002 -0.10364351625951683        0.0000000000000000     
  -8.0603830714571750E-002 -0.11731830324798377        0.0000000000000000     
  -8.2243804670698792E-002 -0.13039678528212298        0.0000000000000000     
  -8.1811174922623228E-002 -0.14287896236193440        0.0000000000000000     
  -6.3812697888386033E-002  -8.7188633020685385E-002   0.0000000000000000     
  -7.0124977907935773E-002 -0.10218063901808168        0.0000000000000000     
  -7.3771604916387512E-002 -0.11676868538464195        0.0000000000000000     
  -7.4752578913741208E-002 -0.13095277212036624        0.0000000000000000     
  -7.3067899899996888E-002 -0.14473289922525456        0.0000000000000000     
  -5.7816624198980593E-002  -8.4961566568529212E-002   0.0000000000000000     
  -6.4725307353969308E-002 -0.10105254471259588        0.0000000000000000     
  -6.9067519911235345E-002 -0.11677385436153827        0.0000000000000000     
  -7.0843261870778704E-002 -0.13212549551535643        0.0000000000000000     
  -7.0052533232599370E-002 -0.14710746817405032        0.0000000000000000     
 -0.11648145003356229      -0.14073298489172087        0.0000000000000000     
 -0.12283232995000336      -0.15358806260902402        0.0000000000000000     
 -0.12367584421499982      -0.17441252669389717        0.0000000000000000     
 -0.11901199282855165      -0.20320637714634027        0.0000000000000000     
 -0.10884077579065889      -0.23996961396635336        0.0000000000000000     
  -9.6282358300478349E-002 -0.14154565758408982        0.0000000000000000     
  -9.8531812400648996E-002 -0.15547012532001353        0.0000000000000000     
 -0.10013665906054349      -0.17601398782645761        0.0000000000000000     
 -0.10109689828016184      -0.20317724510342200        0.0000000000000000     
 -0.10141253005950410      -0.23695989715090690        0.0000000000000000     
  -8.1811174922623228E-002 -0.14287896236193440        0.0000000000000000     
  -8.1375021126762231E-002 -0.15743054265502385        0.0000000000000000     
  -8.3004422939533015E-002 -0.17671723432899705        0.0000000000000000     
  -8.6699380360935552E-002 -0.20073903738385404        0.0000000000000000     
  -9.2459893390969855E-002 -0.22949595181959487        0.0000000000000000     
  -7.3067899899996888E-002 -0.14473289922525456        0.0000000000000000     
  -7.1361956128343090E-002 -0.15946931461405492        0.0000000000000000     
  -7.2279135851968393E-002 -0.17652226620151554        0.0000000000000000     
  -7.5819439070872754E-002 -0.19589175398763634        0.0000000000000000     
  -8.1982865785056216E-002 -0.21757777797241740        0.0000000000000000     
  -7.0052533232599370E-002 -0.14710746817405032        0.0000000000000000     
  -6.8492617405391615E-002 -0.16158644119710691        0.0000000000000000     
  -6.7960797797849637E-002 -0.17542908344401315        0.0000000000000000     
  -6.8457074409973506E-002 -0.18863539491476894        0.0000000000000000     
  -6.9981447241763139E-002 -0.20120537560937438        0.0000000000000000     
 -0.10884077579065889      -0.23996961396635336        0.0000000000000000     
 -0.10123088245084985      -0.27407069135728956        0.0000000000000000     
 -0.10425100215865293      -0.29487806352250212        0.0000000000000000     
 -0.11790113491406813      -0.30239173046199092        0.0000000000000000     
 -0.14218128071709543      -0.29661169217575606        0.0000000000000000     
 -0.10141253005950410      -0.23695989715090690        0.0000000000000000     
 -0.10366573604422828      -0.26749275545724982        0.0000000000000000     
 -0.11043869787999255      -0.28490663151078854        0.0000000000000000     
 -0.12173141556679688      -0.28920152531152310        0.0000000000000000     
 -0.13754388910464130      -0.28037743685945349        0.0000000000000000     
  -9.2459893390969855E-002 -0.22949595181959487        0.0000000000000000     
  -9.9789360509479924E-002 -0.25538248536603153        0.0000000000000000     
 -0.10819118019630974      -0.27079314575297625        0.0000000000000000     
 -0.11766535245145934      -0.27572793298042891        0.0000000000000000     
 -0.12821187727492869      -0.27018684704838958        0.0000000000000000     
  -8.1982865785056216E-002 -0.21757777797241740        0.0000000000000000     
  -8.9601755846604805E-002 -0.23773988108363486        0.0000000000000000     
  -9.7508449107604561E-002 -0.25253760624906524        0.0000000000000000     
 -0.10570294556805551      -0.26197095346870830        0.0000000000000000     
 -0.11418524522795763      -0.26603992274256422        0.0000000000000000     
  -6.9981447241763139E-002 -0.20120537560937438        0.0000000000000000     
  -7.3102922055602884E-002 -0.21456494261005976        0.0000000000000000     
  -7.8390504613876963E-002 -0.23014001299905540        0.0000000000000000     
  -8.5844194916585376E-002 -0.24793058677636132        0.0000000000000000     
  -9.5463992963728123E-002 -0.26793666394197746        0.0000000000000000     
 -0.14218128071709543      -0.29661169217575606        0.0000000000000000     
 -0.16857445841389240      -0.29072388323572385        0.0000000000000000     
 -0.18856368685061650      -0.29791423821382079        0.0000000000000000     
 -0.20214896602726787      -0.31818275711004679        0.0000000000000000     
 -0.20933029594384642      -0.35152943992440194        0.0000000000000000     
 -0.13754388910464130      -0.28037743685945349        0.0000000000000000     
 -0.15309631118100284      -0.27295307998824969        0.0000000000000000     
 -0.16360887448335862      -0.28144716853158180        0.0000000000000000     
 -0.16908157901170862      -0.30585970248944983        0.0000000000000000     
 -0.16951442476605286      -0.34619068186185376        0.0000000000000000     
 -0.12821187727492869      -0.27018684704838958        0.0000000000000000     
 -0.13742677549501606      -0.26710526366450904        0.0000000000000000     
 -0.14290606794001970      -0.27941855853643832        0.0000000000000000     
 -0.14464975460993959      -0.30712673166417737        0.0000000000000000     
 -0.14265783550477582      -0.35022978304772623        0.0000000000000000     
 -0.11418524522795763      -0.26603992274256422        0.0000000000000000     
 -0.12156585135593202      -0.27318043426450189        0.0000000000000000     
 -0.12645526722059974      -0.29182840822839029        0.0000000000000000     
 -0.12885349282196079      -0.32198384463422941        0.0000000000000000     
 -0.12876052816001521      -0.36364674348201931        0.0000000000000000     
  -9.5463992963728123E-002 -0.26793666394197746        0.0000000000000000     
 -0.10551353876375077      -0.29117859178822814        0.0000000000000000     
 -0.11425647232509881      -0.31867671760743765        0.0000000000000000     
 -0.12169279364777226      -0.35043104139960585        0.0000000000000000     
 -0.12782250273177109      -0.38644156316473294        0.0000000000000000     
 -0.20933029594384642      -0.35152943992440194        0.0000000000000000     
 -0.20507984146397931      -0.38438523478140241        0.0000000000000000     
 -0.18436976745129371      -0.40318108980556466        0.0000000000000000     
 -0.14720007390578968      -0.40791700499688849        0.0000000000000000     
  -9.3570760827467098E-002 -0.39859298035537405        0.0000000000000000     
 -0.16951442476605286      -0.34619068186185376        0.0000000000000000     
 -0.16382495359420995      -0.38563029632535822        0.0000000000000000     
 -0.15093070734399852      -0.40736873555652797        0.0000000000000000     
 -0.13083168601541856      -0.41140599955536306        0.0000000000000000     
 -0.10352788960847009      -0.39774208832186331        0.0000000000000000     
 -0.14265783550477582      -0.35022978304772623        0.0000000000000000     
 -0.13778671327433983      -0.39138394797600828        0.0000000000000000     
 -0.13089279056844336      -0.41324546173794752        0.0000000000000000     
 -0.12197606738708630      -0.41581432433354359        0.0000000000000000     
 -0.11103654373026872      -0.39909053576279668        0.0000000000000000     
 -0.12876052816001521      -0.36364674348201931        0.0000000000000000     
 -0.12696512050436901      -0.40164618973335292        0.0000000000000000     
 -0.12425601712462822      -0.42081126834982319        0.0000000000000000     
 -0.12063321802079288      -0.42114197933143033        0.0000000000000000     
 -0.11609672319286296      -0.40263832267817401        0.0000000000000000     
 -0.12782250273177109      -0.38644156316473294        0.0000000000000000     
 -0.13136017528429739      -0.41641702159739169        0.0000000000000000     
 -0.13102038701255311      -0.43006615539215504        0.0000000000000000     
 -0.12680313791653827      -0.42738896454902292        0.0000000000000000     
 -0.11870842799625288      -0.40838544906799545        0.0000000000000000     
  -9.3570760827467098E-002 -0.39859298035537405        0.0000000000000000     
  -6.3499500643524193E-002 -0.39020503293938791        0.0000000000000000     
  -9.7003965781159038E-002 -0.39774917980729674        0.0000000000000000     
 -0.19408415624037165      -0.42122542095910054        0.0000000000000000     
 -0.35474007202116203      -0.46063375639479937        0.0000000000000000     
 -0.10352788960847009      -0.39774208832186331        0.0000000000000000     
  -8.8215320480042270E-002 -0.38655707525557814        0.0000000000000000     
 -0.10408998098702428      -0.39803103375605686        0.0000000000000000     
 -0.15115187112941617      -0.43216396382329941        0.0000000000000000     
 -0.22940099090721788      -0.48895586545730579        0.0000000000000000     
 -0.11103654373026872      -0.39909053576279668        0.0000000000000000     
 -0.10579687747907243      -0.38317311712673363        0.0000000000000000     
 -0.11397972651457929      -0.38816108952638134        0.0000000000000000     
 -0.13558509083678938      -0.41405445296173993        0.0000000000000000     
 -0.17061297044570256      -0.46085320743280933        0.0000000000000000     
 -0.11609672319286296      -0.40263832267817401        0.0000000000000000     
 -0.11624417164061465      -0.38005315855285415        0.0000000000000000     
 -0.12667320236382407      -0.36813934711827012        0.0000000000000000     
 -0.14738381536249126      -0.36689688837442208        0.0000000000000000     
 -0.17837601063661612      -0.37632578232131009        0.0000000000000000     
 -0.11870842799625288      -0.40838544906799545        0.0000000000000000     
 -0.11955720296466896      -0.37719719953393982        0.0000000000000000     
 -0.14217040853475860      -0.33796580653172331        0.0000000000000000     
 -0.18654804470652184      -0.29069127006134599        0.0000000000000000     
 -0.25269011147995851      -0.23537359012280784        0.0000000000000000     
   0.0000000000000000        0.0000000000000000        0.0000000000000000     
  -6.6063435404857618E-003  -5.4614247355513814E-003   0.0000000000000000     
  -1.3350742930845823E-002  -1.2433725884330712E-002   0.0000000000000000     
  -2.0233198171080182E-002  -2.0916903446338002E-002   0.0000000000000000     
  -2.7253709261188842E-002  -3.0910957421573231E-002   0.0000000000000000     
   0.0000000000000000        0.0000000000000000        0.0000000000000000     
  -5.9157213772868611E-003  -5.2555997530860116E-003   0.0000000000000000     
  -1.1838214843717235E-002  -1.1789532736802636E-002   0.0000000000000000     
  -1.7767480399291123E-002  -1.9601798951149867E-002   0.0000000000000000     
  -2.3703518044008522E-002  -2.8692398396127711E-002   0.0000000000000000     
   0.0000000000000000        0.0000000000000000        0.0000000000000000     
  -5.1857104529594534E-003  -4.7929590249793886E-003   0.0000000000000000     
  -1.0313367776781913E-002  -1.0844304766018165E-002   0.0000000000000000     
  -1.5382971971467386E-002  -1.8154037223116325E-002   0.0000000000000000     
  -2.0394523037015864E-002  -2.6722156396273868E-002   0.0000000000000000     
   0.0000000000000000        0.0000000000000000        0.0000000000000000     
  -4.4163107675035378E-003  -4.0735025512315115E-003   0.0000000000000000     
  -8.7762017300398610E-003  -9.5980419719773023E-003   0.0000000000000000     
  -1.3079672887608971E-002  -1.6573618262237366E-002   0.0000000000000000     
  -1.7326724240210870E-002  -2.5000231422011712E-002   0.0000000000000000     
   0.0000000000000000        0.0000000000000000        0.0000000000000000     
  -3.6075223209191144E-003  -3.0972303318423803E-003   0.0000000000000000     
  -7.2267167034910764E-003  -8.0507443546800478E-003   0.0000000000000000     
  -1.0857583147715883E-002  -1.4860542068513002E-002   0.0000000000000000     
  -1.4500121653593540E-002  -2.3526623473341238E-002   0.0000000000000000     
  -2.7253709261188842E-002  -3.0910957421573231E-002   0.0000000000000000     
  -3.4481045706085178E-002  -4.2351239629644891E-002   0.0000000000000000     
  -4.1983977010682585E-002  -5.5173101890161440E-002   0.0000000000000000     
  -4.9762503174981057E-002  -6.9376544203122892E-002   0.0000000000000000     
  -5.7816624198980593E-002  -8.4961566568529212E-002   0.0000000000000000     
  -2.3703518044008522E-002  -2.8692398396127711E-002   0.0000000000000000     
  -2.9960666456889242E-002  -3.9318555328781188E-002   0.0000000000000000     
  -3.6853264316953092E-002  -5.1737494006155321E-002   0.0000000000000000     
  -4.4381311624200059E-002  -6.5949214428250080E-002   0.0000000000000000     
  -5.2544808378630167E-002  -8.1953716595065493E-002   0.0000000000000000     
  -2.0394523037015864E-002  -2.6722156396273868E-002   0.0000000000000000     
  -2.5820771734466823E-002  -3.6789229440841315E-002   0.0000000000000000     
  -3.2134468824859728E-002  -4.8595823512169171E-002   0.0000000000000000     
  -3.9335614308194572E-002  -6.2141938610257422E-002   0.0000000000000000     
  -4.7424208184471364E-002  -7.7427574735106072E-002   0.0000000000000000     
  -1.7326724240210870E-002  -2.5000231422011712E-002   0.0000000000000000     
  -2.2061361538817922E-002  -3.4763261965825284E-002   0.0000000000000000     
  -2.7827590534402497E-002  -4.5748090408203004E-002   0.0000000000000000     
  -3.4625411226964595E-002  -5.7954716749144902E-002   0.0000000000000000     
  -4.2454823616504211E-002  -7.1383140988650950E-002   0.0000000000000000     
  -1.4500121653593540E-002  -2.3526623473341238E-002   0.0000000000000000     
  -1.8682435869942542E-002  -3.3240652903733084E-002   0.0000000000000000     
  -2.3932629445581395E-002  -4.3194294694256841E-002   0.0000000000000000     
  -3.0250702380510107E-002  -5.3387548844912522E-002   0.0000000000000000     
  -3.7636654674728674E-002  -6.3820415355700114E-002   0.0000000000000000     
  -5.7816624198980593E-002  -8.4961566568529212E-002   0.0000000000000000     
  -6.4725307353969308E-002 -0.10105254471259588        0.0000000000000000     