 <VTKFile type="UnstructuredGrid"  version="0.1"   >
 <UnstructuredGrid>
 <Piece  NumberOfPoints="           400 "  NumberOfCells="          256 ">
 <Points>
 <DataArray  type="Float64" NumberOfComponents="3"  format="ascii" >
   0.0000000000000000        0.0000000000000000        0.0000000000000000     
   6.2500000000000000E-002   0.0000000000000000        0.0000000000000000     
  0.12500000000000000        0.0000000000000000        0.0000000000000000     
  0.18750000000000000        0.0000000000000000        0.0000000000000000     
  0.25000000000000000        0.0000000000000000        0.0000000000000000     
   0.0000000000000000        6.2500000000000000E-002   0.0000000000000000     
   6.2500000000000000E-002   6.2500000000000000E-002   0.0000000000000000     
  0.12500000000000000        6.2500000000000000E-002   0.0000000000000000     
  0.18750000000000000        6.2500000000000000E-002   0.0000000000000000     
  0.25000000000000000        6.2500000000000000E-002   0.0000000000000000     
   0.0000000000000000       0.12500000000000000        0.0000000000000000     
   6.2500000000000000E-002  0.12500000000000000        0.0000000000000000     
  0.12500000000000000       0.12500000000000000        0.0000000000000000     
  0.18750000000000000       0.12500000000000000        0.0000000000000000     
  0.25000000000000000       0.12500000000000000        0.0000000000000000     
   0.0000000000000000       0.18750000000000000        0.0000000000000000     
   6.2500000000000000E-002  0.18750000000000000        0.0000000000000000     
  0.12500000000000000       0.18750000000000000        0.0000000000000000     
  0.18750000000000000       0.18750000000000000        0.0000000000000000     
  0.25000000000000000       0.18750000000000000        0.0000000000000000     
   0.0000000000000000       0.25000000000000000        0.0000000000000000     
   6.2500000000000000E-002  0.25000000000000000        0.0000000000000000     
  0.12500000000000000       0.25000000000000000        0.0000000000000000     
  0.18750000000000000       0.25000000000000000        0.0000000000000000     
  0.25000000000000000       0.25000000000000000        0.0000000000000000     
  0.25000000000000000        0.0000000000000000        0.0000000000000000     
  0.31250000000000000        0.0000000000000000        0.0000000000000000     
  0.37500000000000000        0.0000000000000000        0.0000000000000000     
  0.43750000000000000        0.0000000000000000        0.0000000000000000     
  0.50000000000000000        0.0000000000000000        0.0000000000000000     
  0.25000000000000000        6.2500000000000000E-002   0.0000000000000000     
  0.31250000000000000        6.2500000000000000E-002   0.0000000000000000     
  0.37500000000000000        6.2500000000000000E-002   0.0000000000000000     
  0.43750000000000000        6.2500000000000000E-002   0.0000000000000000     
  0.50000000000000000        6.2500000000000000E-002   0.0000000000000000     
  0.25000000000000000       0.12500000000000000        0.0000000000000000     
  0.31250000000000000       0.12500000000000000        0.0000000000000000     
  0.37500000000000000       0.12500000000000000        0.0000000000000000     
  0.43750000000000000       0.12500000000000000        0.0000000000000000     
  0.50000000000000000       0.12500000000000000        0.0000000000000000     
  0.25000000000000000       0.18750000000000000        0.0000000000000000     
  0.31250000000000000       0.18750000000000000        0.0000000000000000     
  0.37500000000000000       0.18750000000000000        0.0000000000000000     
  0.43750000000000000       0.18750000000000000        0.0000000000000000     
  0.50000000000000000       0.18750000000000000        0.0000000000000000     
  0.25000000000000000       0.25000000000000000        0.0000000000000000     
  0.31250000000000000       0.25000000000000000        0.0000000000000000     
  0.37500000000000000       0.25000000000000000        0.0000000000000000     
  0.43750000000000000       0.25000000000000000        0.0000000000000000     
  0.50000000000000000       0.25000000000000000        0.0000000000000000     
  0.50000000000000000        0.0000000000000000        0.0000000000000000     
  0.56250000000000000        0.0000000000000000        0.0000000000000000     
  0.62500000000000000        0.0000000000000000        0.0000000000000000     
  0.68750000000000000        0.0000000000000000        0.0000000000000000     
  0.75000000000000000        0.0000000000000000        0.0000000000000000     
  0.50000000000000000        6.2500000000000000E-002   0.0000000000000000     
  0.56250000000000000        6.2500000000000000E-002   0.0000000000000000     
  0.62500000000000000        6.2500000000000000E-002   0.0000000000000000     
  0.68750000000000000        6.2500000000000000E-002   0.0000000000000000     
  0.75000000000000000        6.2500000000000000E-002   0.0000000000000000     
  0.50000000000000000       0.12500000000000000        0.0000000000000000     
  0.56250000000000000       0.12500000000000000        0.0000000000000000     
  0.62500000000000000       0.12500000000000000        0.0000000000000000     
  0.68750000000000000       0.12500000000000000        0.0000000000000000     
  0.75000000000000000       0.12500000000000000        0.0000000000000000     
  0.50000000000000000       0.18750000000000000        0.0000000000000000     
  0.56250000000000000       0.18750000000000000        0.0000000000000000     
  0.62500000000000000       0.18750000000000000        0.0000000000000000     
  0.68750000000000000       0.18750000000000000        0.0000000000000000     
  0.75000000000000000       0.18750000000000000        0.0000000000000000     
  0.50000000000000000       0.25000000000000000        0.0000000000000000     
  0.56250000000000000       0.25000000000000000        0.0000000000000000     
  0.62500000000000000       0.25000000000000000        0.0000000000000000     
  0.68750000000000000       0.25000000000000000        0.0000000000000000     
  0.75000000000000000       0.25000000000000000        0.0000000000000000     
  0.75000000000000000        0.0000000000000000        0.0000000000000000     
  0.81250000000000000        0.0000000000000000        0.0000000000000000     
  0.87500000000000000        0.0000000000000000        0.0000000000000000     
  0.93750000000000000        0.0000000000000000        0.0000000000000000     
   1.0000000000000000        0.0000000000000000        0.0000000000000000     
  0.75000000000000000        6.2500000000000000E-002   0.0000000000000000     
  0.81250000000000000        6.2500000000000000E-002   0.0000000000000000     
  0.87500000000000000        6.2500000000000000E-002   0.0000000000000000     
  0.93750000000000000        6.2500000000000000E-002   0.0000000000000000     
   1.0000000000000000        6.2500000000000000E-002   0.0000000000000000     
  0.75000000000000000       0.12500000000000000        0.0000000000000000     
  0.81250000000000000       0.12500000000000000        0.0000000000000000     
  0.87500000000000000       0.12500000000000000        0.0000000000000000     
  0.93750000000000000       0.12500000000000000        0.0000000000000000     
   1.0000000000000000       0.12500000000000000        0.0000000000000000     
  0.75000000000000000       0.18750000000000000        0.0000000000000000     
  0.81250000000000000       0.18750000000000000        0.0000000000000000     
  0.87500000000000000       0.18750000000000000        0.0000000000000000     
  0.93750000000000000       0.18750000000000000        0.0000000000000000     
   1.0000000000000000       0.18750000000000000        0.0000000000000000     
  0.75000000000000000       0.25000000000000000        0.0000000000000000     
  0.81250000000000000       0.25000000000000000        0.0000000000000000     
  0.87500000000000000       0.25000000000000000        0.0000000000000000     
  0.93750000000000000       0.25000000000000000        0.0000000000000000     
   1.0000000000000000       0.25000000000000000        0.0000000000000000     
   0.0000000000000000       0.25000000000000000        0.0000000000000000     
   6.2500000000000000E-002  0.25000000000000000        0.0000000000000000     
  0.12500000000000000       0.25000000000000000        0.0000000000000000     
  0.18750000000000000       0.25000000000000000        0.0000000000000000     
  0.25000000000000000       0.25000000000000000        0.0000000000000000     
   0.0000000000000000       0.31250000000000000        0.0000000000000000     
   6.2500000000000000E-002  0.31250000000000000        0.0000000000000000     
  0.12500000000000000       0.31250000000000000        0.0000000000000000     
  0.18750000000000000       0.31250000000000000        0.0000000000000000     
  0.25000000000000000       0.31250000000000000        0.0000000000000000     
   0.0000000000000000       0.37500000000000000        0.0000000000000000     
   6.2500000000000000E-002  0.37500000000000000        0.0000000000000000     
  0.12500000000000000       0.37500000000000000        0.0000000000000000     
  0.18750000000000000       0.37500000000000000        0.0000000000000000     
  0.25000000000000000       0.37500000000000000        0.0000000000000000     
   0.0000000000000000       0.43750000000000000        0.0000000000000000     
   6.2500000000000000E-002  0.43750000000000000        0.0000000000000000     
  0.12500000000000000       0.43750000000000000        0.0000000000000000     
  0.18750000000000000       0.43750000000000000        0.0000000000000000     
  0.25000000000000000       0.43750000000000000        0.0000000000000000     
   0.0000000000000000       0.50000000000000000        0.0000000000000000     
   6.2500000000000000E-002  0.50000000000000000        0.0000000000000000     
  0.12500000000000000       0.50000000000000000        0.0000000000000000     
[...]
 <PointData>
 <DataArray  type="Float64" Name="disp" NumberOfComponents="3" format="ascii">
   0.0000000000000000        0.0000000000000000        0.0000000000000000     
   1.0687784423898079E-002   6.3640144180162660E-003   0.0000000000000000     
   2.0498017464250947E-002   1.2952706876048419E-002   0.0000000000000000     
   2.9430699121058598E-002   1.9766077374096462E-002   0.0000000000000000     
   3.7485829394321039E-002   2.6804125912160390E-002   0.0000000000000000     
   0.0000000000000000        0.0000000000000000        0.0000000000000000     
   8.1738724692409642E-003   5.0272386307974367E-003   0.0000000000000000     
   1.5979655184030311E-002   1.0763023410074164E-002   0.0000000000000000     
   2.3417348144368046E-002   1.7207354337830182E-002   0.0000000000000000     
   3.0486951350254161E-002   2.4360231414065486E-002   0.0000000000000000     
   0.0000000000000000        0.0000000000000000        0.0000000000000000     
   6.1378926003619414E-003   4.0135921553582322E-003   0.0000000000000000     
   1.2244765983264645E-002   9.0825358481558364E-003   0.0000000000000000     
   1.8320620148708111E-002   1.5206831078392807E-002   0.0000000000000000     
   2.4365455096692336E-002   2.2386477846069151E-002   0.0000000000000000     
   0.0000000000000000        0.0000000000000000        0.0000000000000000     
   4.5798448172610154E-003   3.3230749916986517E-003   0.0000000000000000     
   9.2933498619539485E-003   7.9112441902934316E-003   0.0000000000000000     
   1.4140515134078794E-002   1.3764507595784344E-002   0.0000000000000000     
   1.9121340633635565E-002   2.0882865208171383E-002   0.0000000000000000     
   0.0000000000000000        0.0000000000000000        0.0000000000000000     
   3.4997291199381836E-003   2.9556871398186946E-003   0.0000000000000000     
   7.1254068200982176E-003   7.2491484364869572E-003   0.0000000000000000     
   1.0877033100480101E-002   1.2880383890004789E-002   0.0000000000000000     
   1.4754607961083837E-002   1.9849393500372188E-002   0.0000000000000000     
   3.7485829394321039E-002   2.6804125912160390E-002   0.0000000000000000     
   4.4926964335197071E-002   3.4394698337099169E-002   0.0000000000000000     
   5.2017659994845492E-002   4.2865640495771760E-002   0.0000000000000000     
   5.8757916373266321E-002   5.2216952388178146E-002   0.0000000000000000     
   6.5147733470459532E-002   6.2448634014318355E-002   0.0000000000000000     
   3.0486951350254161E-002   2.4360231414065486E-002   0.0000000000000000     
   3.7189091669140244E-002   3.2266168452241832E-002   0.0000000000000000     
   4.3524395968477896E-002   4.0969679265820957E-002   0.0000000000000000     
   4.9492864248267085E-002   5.0470763854802890E-002   0.0000000000000000     
   5.5094496508507826E-002   6.0769422219187588E-002   0.0000000000000000     
   2.4365455096692336E-002   2.2386477846069151E-002   0.0000000000000000     
   3.0221082673511184E-002   3.0473497488961946E-002   0.0000000000000000     
   3.5729314725458511E-002   3.9319911344848274E-002   0.0000000000000000     
   4.0890151252534299E-002   4.8925719413728148E-002   0.0000000000000000     
   4.5703592254738579E-002   5.9290921695601545E-002   0.0000000000000000     
   1.9121340633635565E-002   2.0882865208171383E-002   0.0000000000000000     
   2.4022937348309868E-002   2.9016685447259515E-002   0.0000000000000000     
   2.8632416265787344E-002   3.7916336732853689E-002   0.0000000000000000     
   3.2949777386067983E-002   4.7581819064953935E-002   0.0000000000000000     
   3.6975020709151790E-002   5.8013132443560211E-002   0.0000000000000000     
   1.4754607961083837E-002   1.9849393500372188E-002   0.0000000000000000     
   1.8594655693536310E-002   2.7895732327134538E-002   0.0000000000000000     
   2.2233700589464403E-002   3.6758955429837224E-002   0.0000000000000000     
   2.5671742648868116E-002   4.6439062808480244E-002   0.0000000000000000     
   2.8908781871747457E-002   5.6936054463063594E-002   0.0000000000000000     
   6.5147733470459532E-002   6.2448634014318355E-002   0.0000000000000000     
   7.1172718254877296E-002   7.3449137227439384E-002   0.0000000000000000     
   7.6818477694971729E-002   8.5106913880788240E-002   0.0000000000000000     
   8.2085011790742846E-002   9.7421963974364922E-002   0.0000000000000000     
   8.6972320542190645E-002  0.11039428750816943        0.0000000000000000     
   5.5094496508507826E-002   6.0769422219187588E-002   0.0000000000000000     
   6.0350032949511599E-002   7.1810369723743592E-002   0.0000000000000000     
   6.5280213771589893E-002   8.3538321733239398E-002   0.0000000000000000     
   6.9885038974742686E-002   9.5953278247675008E-002   0.0000000000000000     
   7.4164508558969985E-002  0.10905523926705042        0.0000000000000000     
   4.5703592254738579E-002   5.9290921695601545E-002   0.0000000000000000     
   5.0204563047666080E-002   7.0387807255696613E-002   0.0000000000000000     
   5.4427988946911574E-002   8.2188665159241503E-002   0.0000000000000000     
   5.8373869952475024E-002   9.4693495406236186E-002   0.0000000000000000     
   6.2042206064356460E-002  0.10790229799668072        0.0000000000000000     
   3.6975020709151790E-002   5.8013132443560211E-002   0.0000000000000000     
   4.0736308549340718E-002   6.9181449823298449E-002   0.0000000000000000     
   4.4261803220936750E-002   8.1057944158794526E-002   0.0000000000000000     
   4.7551504723939868E-002   9.3642615450048497E-002   0.0000000000000000     
   5.0605413058350077E-002  0.10693546369706032        0.0000000000000000     
   2.8908781871747457E-002   5.6936054463063594E-002   0.0000000000000000     
   3.1945269454535533E-002   6.8191297426549086E-002   0.0000000000000000     
   3.4781656593665451E-002   8.0146158731898523E-002   0.0000000000000000     
   3.7417943289137223E-002   9.2800638379111899E-002   0.0000000000000000     
   3.9854129540950842E-002  0.10615473636818923        0.0000000000000000     
   8.6972320542190645E-002  0.11039428750816943        0.0000000000000000     
   9.1473195983453645E-002  0.12394287668120059        0.0000000000000000     
   9.5580430148670334E-002  0.13798672369245726        0.0000000000000000     
   9.9294023037840712E-002  0.15252582854193936        0.0000000000000000     
  0.10261397465096478       0.16756019122964699        0.0000000000000000     
   7.4164508558969985E-002  0.10905523926705042        0.0000000000000000     
   7.8110254962064918E-002  0.12273963433328657        0.0000000000000000     
   8.1713910621820596E-002  0.13690189298830430        0.0000000000000000     
   8.4975475538237033E-002  0.15154201523210370        0.0000000000000000     
   8.7894949711314230E-002  0.16666000106468470        0.0000000000000000     
   6.2042206064356460E-002  0.10790229799668072        0.0000000000000000     
   6.5425890961739785E-002  0.12169761781725125        0.0000000000000000     
   6.8517818323808891E-002  0.13596199975462403        0.0000000000000000     
   7.1317988150563755E-002  0.15069544380879904        0.0000000000000000     
   7.3826400442004420E-002  0.16589794997977630        0.0000000000000000     
   5.0605413058350077E-002  0.10693546369706032        0.0000000000000000     
   5.3420103982478220E-002  0.12081682713309473        0.0000000000000000     
   5.5992153254635149E-002  0.13516704399141646        0.0000000000000000     
   5.8321560874820842E-002  0.14998611427202552        0.0000000000000000     
   6.0408326843035320E-002  0.16527403797492191        0.0000000000000000     
   3.9854129540950842E-002  0.10615473636818923        0.0000000000000000     
   4.2092894024280250E-002  0.12009726228081696        0.0000000000000000     
   4.4136915414299406E-002  0.13451702569868157        0.0000000000000000     
   4.5986193711008316E-002  0.14941402662178305        0.0000000000000000     
   4.7640728914406953E-002  0.16478826505012137        0.0000000000000000     
   0.0000000000000000        0.0000000000000000        0.0000000000000000     
   3.4997291199381836E-003   2.9556871398186946E-003   0.0000000000000000     
   7.1254068200982176E-003   7.2491484364869572E-003   0.0000000000000000     
   1.0877033100480101E-002   1.2880383890004789E-002   0.0000000000000000     
   1.4754607961083837E-002   1.9849393500372188E-002   0.0000000000000000     
   0.0000000000000000        0.0000000000000000        0.0000000000000000     
   2.6501338090689193E-003   2.7755918435234325E-003   0.0000000000000000     
   5.3479140171469441E-003   6.8925878601266101E-003   0.0000000000000000     
   8.0933406242340751E-003   1.2350988049809532E-002   0.0000000000000000     
   1.0886413630330310E-002   1.9150792412572198E-002   0.0000000000000000     
   0.0000000000000000        0.0000000000000000        0.0000000000000000     
   1.7836471853286931E-003   2.6469523466179359E-003   0.0000000000000000     
   3.5678486125496128E-003   6.6379017346025896E-003   0.0000000000000000     
   5.3526042816627595E-003   1.1972848163953959E-002   0.0000000000000000     
   7.1379141926681319E-003   1.8651791634672042E-002   0.0000000000000000     
   0.0000000000000000        0.0000000000000000        0.0000000000000000     
   9.0026924871750664E-004   2.5697686491022048E-003   0.0000000000000000     
   1.7852106063062255E-003   6.4850900599148940E-003   0.0000000000000000     
   2.6548240727661565E-003   1.1745964232438070E-002   0.0000000000000000     
   3.5091096480972988E-003   1.8352391166671728E-002   0.0000000000000000     
   0.0000000000000000        0.0000000000000000        0.0000000000000000     
  -7.6464062945952316E-013   2.5440407509762387E-003   0.0000000000000000     
  -1.5832185822767242E-012   6.4341528360635286E-003   0.0000000000000000     
  -2.4557344005526893E-012   1.1670336255261869E-002   0.0000000000000000     
  -3.3821865664043771E-012   1.8252591008571257E-002   0.0000000000000000     
   1.4754607961083837E-002   1.9849393500372188E-002   0.0000000000000000     
   1.8594655693536310E-002   2.7895732327134538E-002   0.0000000000000000     
   2.2233700589464403E-002   3.6758955429837224E-002   0.0000000000000000     
   2.5671742648868116E-002   4.6439062808480244E-002   0.0000000000000000     
   2.8908781871747457E-002   5.6936054463063594E-002   0.0000000000000000     
   1.0886413630330310E-002   1.9150792412572198E-002   0.0000000000000000     
   1.3649977347821611E-002   2.7061836624507028E-002   0.0000000000000000     
   1.6306876089093932E-002   3.5853956361706442E-002   0.0000000000000000     
   1.8857109854147271E-002   4.5527151624170446E-002   0.0000000000000000     
   2.1300678642981630E-002   5.6081422411899021E-002   0.0000000000000000     
   7.1379141926681319E-003   1.8651791634672042E-002   0.0000000000000000     
   8.9026419497968846E-003   2.6466196835296989E-002   0.0000000000000000     
   1.0625651157280173E-002   3.5207528454368933E-002   0.0000000000000000     
   1.2306941815117997E-002   4.4875786491887878E-002   0.0000000000000000     
   1.3946513923310356E-002   5.5470970947853818E-002   0.0000000000000000     
   3.5091096480972988E-003   1.8352391166671728E-002   0.0000000000000000     
   4.3526494994621332E-003   2.6108812959504426E-002   0.0000000000000000     
   5.1900257940231320E-003   3.4819671707824712E-002   0.0000000000000000     
   6.0212385317803029E-003   4.4484967411632555E-002   0.0000000000000000     
   6.8462877127336381E-003   5.5104700070927992E-002   0.0000000000000000     
  -3.3821865664043771E-012   1.8252591008571257E-002   0.0000000000000000     
  -3.1826484806971034E-012   2.5989684997129336E-002   0.0000000000000000     
  -6.7719346298102112E-013   3.4690386122073737E-002   0.0000000000000000     
   4.1341794557495613E-012   4.4354694383404468E-002   0.0000000000000000     
   1.1251470241613326E-011   5.4982609781121523E-002   0.0000000000000000     
   2.8908781871747457E-002   5.6936054463063594E-002   0.0000000000000000     
   3.1945269454535533E-002   6.8191297426549086E-002   0.0000000000000000     
   3.4781656593665451E-002   8.0146158731898523E-002   0.0000000000000000     
   3.7417943289137223E-002   9.2800638379111899E-002   0.0000000000000000     
   3.9854129540950842E-002  0.10615473636818923        0.0000000000000000     
   2.1300678642981630E-002   5.6081422411899021E-002   0.0000000000000000     
   2.3609366569819365E-002   6.7419503783601800E-002   0.0000000000000000     
   2.5754957748882822E-002   7.9444130797988399E-002   0.0000000000000000     
   2.7737452180172012E-002   9.2155303455058804E-002   0.0000000000000000     
   2.9556849863686920E-002  0.10555302175481304        0.0000000000000000     
   1.3946513923310356E-002   5.5470970947853818E-002   0.0000000000000000     
   1.5506520701761088E-002   6.6868222612609871E-002   0.0000000000000000     
   1.6949115370374020E-002   7.8942682276499157E-002   0.0000000000000000     
   1.8274297929149152E-002   9.1694349939521635E-002   0.0000000000000000     
   1.9482068378086494E-002  0.10512322560167733        0.0000000000000000     
   6.8462877127336381E-003   5.5104700070927992E-002   0.0000000000000000     
   7.6367318503606993E-003   6.6537453913573283E-002   0.0000000000000000     
   8.3641294581390403E-003   7.8641813167430741E-002   0.0000000000000000     
   9.0284805360686653E-003   9.1417777832500338E-002   0.0000000000000000     
   9.6297850841495676E-003  0.10486534790878216        0.0000000000000000     
   1.1251470241613326E-011   5.4982609781121523E-002   0.0000000000000000     
   1.5618199658909426E-011   6.6427197686492051E-002   0.0000000000000000     
   1.2177888255096581E-011   7.8541523470783234E-002   0.0000000000000000     
   9.3053326545924908E-013   9.1325587133995023E-002   0.0000000000000000     
  -1.8123861786345508E-011  0.10477938867612746        0.0000000000000000     
   3.9854129540950842E-002  0.10615473636818923        0.0000000000000000     
   4.2092894024280250E-002  0.12009726228081696        0.0000000000000000     
   4.4136915414299406E-002  0.13451702569868157        0.0000000000000000     
   4.5986193711008316E-002  0.14941402662178305        0.0000000000000000     
   4.7640728914406953E-002  0.16478826505012137        0.0000000000000000     
   2.9556849863686920E-002  0.10555302175481304        0.0000000000000000     
   3.1221147060116767E-002  0.11953817933569845        0.0000000000000000     
   3.2738340030150768E-002  0.13401166983616242        0.0000000000000000     
   3.4108428773788918E-002  0.14897349325620499        0.0000000000000000     
   3.5331413291031226E-002  0.16442364959582617        0.0000000000000000     
   1.9482068378086494E-002  0.10512322560167733        0.0000000000000000     
   2.0581749062958669E-002  0.11913883437301971        0.0000000000000000     
   2.1582662329538319E-002  0.13365070136360224        0.0000000000000000     
   2.2484808177825444E-002  0.14865882657342483        0.0000000000000000     
   2.3288186607820040E-002  0.16416321000248763        0.0000000000000000     
   9.6297850841495676E-003  0.10486534790878216        0.0000000000000000     
   1.0174700032805965E-002  0.11889922739278076        0.0000000000000000     
   1.0669882312462070E-002  0.13343412028100091        0.0000000000000000     
   1.1115331923117880E-002  0.14847002657344255        0.0000000000000000     
   1.1511048864773402E-002  0.16400694627010570        0.0000000000000000     
  -1.8123861786345508E-011  0.10477938867612746        0.0000000000000000     
  -3.0341349658430383E-011  0.11881935839498158        0.0000000000000000     
  -2.1077984193110244E-011  0.13336192658835846        0.0000000000000000     
   9.6662356396069737E-012  0.14840709325625809        0.0000000000000000     
   6.1891306316064210E-011  0.16395485839868051        0.0000000000000000     
   0.0000000000000000        0.0000000000000000        0.0000000000000000     
  -7.6464062945952316E-013   2.5440407509762387E-003   0.0000000000000000     
  -1.5832185822767242E-012   6.4341528360635286E-003   0.0000000000000000     
  -2.4557344005526893E-012   1.1670336255261869E-002   0.0000000000000000     
  -3.3821865664043771E-012   1.8252591008571257E-002   0.0000000000000000     
   0.0000000000000000        0.0000000000000000        0.0000000000000000     
  -9.0026925008767343E-004   2.5697686518083890E-003   0.0000000000000000     
  -1.7852106092091165E-003   6.4850900626549817E-003   0.0000000000000000     
  -2.6548240773643294E-003   1.1745964232539777E-002   0.0000000000000000     
  -3.5091096545533124E-003   1.8352391161462776E-002   0.0000000000000000     
   0.0000000000000000        0.0000000000000000        0.0000000000000000     
  -1.7836471862215158E-003   2.6469523511670041E-003   0.0000000000000000     
  -3.5678486146618646E-003   6.6379017392957460E-003   0.0000000000000000     
  -5.3526042853210484E-003   1.1972848164386225E-002   0.0000000000000000     
  -7.1379141981990643E-003   1.8651791626438444E-002   0.0000000000000000     
   0.0000000000000000        0.0000000000000000        0.0000000000000000     
  -2.6501338091661675E-003   2.7755918490520847E-003   0.0000000000000000     
  -5.3479140179414648E-003   6.8925878659858233E-003   0.0000000000000000     
  -8.0933406263258879E-003   1.2350988050801212E-002   0.0000000000000000     
  -1.0886413634319442E-002   1.9150792403498259E-002   0.0000000000000000     
   0.0000000000000000        0.0000000000000000        0.0000000000000000     
  -3.4997291189216295E-003   2.9556871454636301E-003   0.0000000000000000     
  -7.1254068190479154E-003   7.2491484427252093E-003   0.0000000000000000     
  -1.0877033100378854E-002   1.2880383891784739E-002   0.0000000000000000     
  -1.4754607962914447E-002   1.9849393492642219E-002   0.0000000000000000     
  -3.3821865664043771E-012   1.8252591008571257E-002   0.0000000000000000     
  -3.1826484806971034E-012   2.5989684997129336E-002   0.0000000000000000     
  -6.7719346298102112E-013   3.4690386122073737E-002   0.0000000000000000     
   4.1341794557495613E-012   4.4354694383404468E-002   0.0000000000000000     
   1.1251470241613326E-011   5.4982609781121523E-002   0.0000000000000000     
  -3.5091096545533124E-003   1.8352391161462776E-002   0.0000000000000000     
  -4.3526495056817171E-003   2.6108812950034272E-002   0.0000000000000000     
  -5.1900257956551980E-003   3.4819671698864560E-002   0.0000000000000000     
  -6.0212385244737552E-003   4.4484967407953643E-002   0.0000000000000000     
  -6.8462876921373886E-003   5.5104700077301505E-002   0.0000000000000000     
  -7.1379141981990643E-003   1.8651791626438444E-002   0.0000000000000000     
  -8.9026419555793337E-003   2.6466196820081798E-002   0.0000000000000000     
  -1.0625651159745276E-002   3.5207528439945672E-002   0.0000000000000000     
  -1.2306941810696892E-002   4.4875786486030071E-002   0.0000000000000000     
  -1.3946513908434183E-002   5.5470970958334996E-002   0.0000000000000000     
  -1.0886413634319442E-002   1.9150792403498259E-002   0.0000000000000000     
  -1.3649977352875499E-002   2.7061836607271891E-002   0.0000000000000000     
  -1.6306876092947425E-002   3.5853956345317066E-002   0.0000000000000000     
  -1.8857109854535231E-002   4.5527151617633772E-002   0.0000000000000000     
  -2.1300678637638914E-002   5.6081422424221997E-002   0.0000000000000000     
  -1.4754607962914447E-002   1.9849393492642219E-002   0.0000000000000000     
  -1.8594655697570208E-002   2.7895732311604578E-002   0.0000000000000000     
  -2.2233700595261651E-002   3.6758955414978749E-002   0.0000000000000000     
  -2.5671742655988771E-002   4.6439062802764733E-002   0.0000000000000000     
  -2.8908781879751579E-002   5.6936054474962514E-002   0.0000000000000000     
   1.1251470241613326E-011   5.4982609781121523E-002   0.0000000000000000     
   1.5618199658909426E-011   6.6427197686492051E-002   0.0000000000000000     