 <VTKFile type="UnstructuredGrid"  version="0.1"   >
 <UnstructuredGrid>
 <Piece  NumberOfPoints="          1600 "  NumberOfCells="         1024 ">
 <Points>
 <DataArray  type="Float64" NumberOfComponents="3"  format="ascii" >
   0.0000000000000000        0.0000000000000000        0.0000000000000000     
   3.1250000000000000E-002   0.0000000000000000        0.0000000000000000     
   6.2500000000000000E-002   0.0000000000000000        0.0000000000000000     
   9.3750000000000000E-002   0.0000000000000000        0.0000000000000000     
  0.12500000000000000        0.0000000000000000        0.0000000000000000     
   0.0000000000000000        3.1250000000000000E-002   0.0000000000000000     
   3.1250000000000000E-002   3.1250000000000000E-002   0.0000000000000000     
   6.2500000000000000E-002   3.1250000000000000E-002   0.0000000000000000     
   9.3750000000000000E-002   3.1250000000000000E-002   0.0000000000000000     
  0.12500000000000000        3.1250000000000000E-002   0.0000000000000000     
   0.0000000000000000        6.2500000000000000E-002   0.0000000000000000     
   3.1250000000000000E-002   6.2500000000000000E-002   0.0000000000000000     
   6.2500000000000000E-002   6.2500000000000000E-002   0.0000000000000000     
   9.3750000000000000E-002   6.2500000000000000E-002   0.0000000000000000     
  0.12500000000000000        6.2500000000000000E-002   0.0000000000000000     
   0.0000000000000000        9.3750000000000000E-002   0.0000000000000000     
   3.1250000000000000E-002   9.3750000000000000E-002   0.0000000000000000     
   6.2500000000000000E-002   9.3750000000000000E-002   0.0000000000000000     
   9.3750000000000000E-002   9.3750000000000000E-002   0.0000000000000000     
  0.12500000000000000        9.3750000000000000E-002   0.0000000000000000     
   0.0000000000000000       0.12500000000000000        0.0000000000000000     
   3.1250000000000000E-002  0.12500000000000000        0.0000000000000000     
   6.2500000000000000E-002  0.12500000000000000        0.0000000000000000     
   9.3750000000000000E-002  0.12500000000000000        0.0000000000000000     
  0.12500000000000000       0.12500000000000000        0.0000000000000000     
  0.12500000000000000        0.0000000000000000        0.0000000000000000     
  0.15625000000000000        0.0000000000000000        0.0000000000000000     
  0.18750000000000000        0.0000000000000000        0.0000000000000000     
  0.21875000000000000        0.0000000000000000        0.0000000000000000     
  0.25000000000000000        0.0000000000000000        0.0000000000000000     
  0.12500000000000000        3.1250000000000000E-002   0.0000000000000000     
  0.15625000000000000        3.1250000000000000E-002   0.0000000000000000     
  0.18750000000000000        3.1250000000000000E-002   0.0000000000000000     
  0.21875000000000000        3.1250000000000000E-002   0.0000000000000000     
  0.25000000000000000        3.1250000000000000E-002   0.0000000000000000     
  0.12500000000000000        6.2500000000000000E-002   0.0000000000000000     
  0.15625000000000000        6.2500000000000000E-002   0.0000000000000000     
  0.18750000000000000        6.2500000000000000E-002   0.0000000000000000     
  0.21875000000000000        6.2500000000000000E-002   0.0000000000000000     
  0.25000000000000000        6.2500000000000000E-002   0.0000000000000000     
  0.12500000000000000        9.3750000000000000E-002   0.0000000000000000     
  0.15625000000000000        9.3750000000000000E-002   0.0000000000000000     
  0.18750000000000000        9.3750000000000000E-002   0.0000000000000000     
  0.21875000000000000        9.3750000000000000E-002   0.0000000000000000     
  0.25000000000000000        9.3750000000000000E-002   0.0000000000000000     
  0.12500000000000000       0.12500000000000000        0.0000000000000000     
  0.15625000000000000       0.12500000000000000        0.0000000000000000     
  0.18750000000000000       0.12500000000000000        0.0000000000000000     
  0.21875000000000000       0.12500000000000000        0.0000000000000000     
  0.25000000000000000       0.12500000000000000        0.0000000000000000     
  0.25000000000000000        0.0000000000000000        0.0000000000000000     
  0.28125000000000000        0.0000000000000000        0.0000000000000000     
  0.31250000000000000        0.0000000000000000        0.0000000000000000     
  0.34375000000000000        0.0000000000000000        0.0000000000000000     
  0.37500000000000000        0.0000000000000000        0.0000000000000000     
  0.25000000000000000        3.1250000000000000E-002   0.0000000000000000     
  0.28125000000000000        3.1250000000000000E-002   0.0000000000000000     
  0.31250000000000000        3.1250000000000000E-002   0.0000000000000000     
  0.34375000000000000        3.1250000000000000E-002   0.0000000000000000     
  0.37500000000000000        3.1250000000000000E-002   0.0000000000000000     
  0.25000000000000000        6.2500000000000000E-002   0.0000000000000000     
  0.28125000000000000        6.2500000000000000E-002   0.0000000000000000     
  0.31250000000000000        6.2500000000000000E-002   0.0000000000000000     
  0.34375000000000000        6.2500000000000000E-002   0.0000000000000000     
  0.37500000000000000        6.2500000000000000E-002   0.0000000000000000     
  0.25000000000000000        9.3750000000000000E-002   0.0000000000000000     
  0.28125000000000000        9.3750000000000000E-002   0.0000000000000000     
  0.31250000000000000        9.3750000000000000E-002   0.0000000000000000     
  0.34375000000000000        9.3750000000000000E-002   0.0000000000000000     
  0.37500000000000000        9.3750000000000000E-002   0.0000000000000000     
  0.25000000000000000       0.12500000000000000        0.0000000000000000     
  0.28125000000000000       0.12500000000000000        0.0000000000000000     
  0.31250000000000000       0.12500000000000000        0.0000000000000000     
  0.34375000000000000       0.12500000000000000        0.0000000000000000     
  0.37500000000000000       0.12500000000000000        0.0000000000000000     
  0.37500000000000000        0.0000000000000000        0.0000000000000000     
  0.40625000000000000        0.0000000000000000        0.0000000000000000     
  0.43750000000000000        0.0000000000000000        0.0000000000000000     
  0.46875000000000000        0.0000000000000000        0.0000000000000000     
  0.50000000000000000        0.0000000000000000        0.0000000000000000     
  0.37500000000000000        3.1250000000000000E-002   0.0000000000000000     
  0.40625000000000000        3.1250000000000000E-002   0.0000000000000000     
  0.43750000000000000        3.1250000000000000E-002   0.0000000000000000     
  0.46875000000000000        3.1250000000000000E-002   0.0000000000000000     
  0.50000000000000000        3.1250000000000000E-002   0.0000000000000000     
  0.37500000000000000        6.2500000000000000E-002   0.0000000000000000     
  0.40625000000000000        6.2500000000000000E-002   0.0000000000000000     
  0.43750000000000000        6.2500000000000000E-002   0.0000000000000000     
  0.46875000000000000        6.2500000000000000E-002   0.0000000000000000     
  0.50000000000000000        6.2500000000000000E-002   0.0000000000000000     
  0.37500000000000000        9.3750000000000000E-002   0.0000000000000000     
  0.40625000000000000        9.3750000000000000E-002   0.0000000000000000     
  0.43750000000000000        9.3750000000000000E-002   0.0000000000000000     
  0.46875000000000000        9.3750000000000000E-002   0.0000000000000000     
  0.50000000000000000        9.3750000000000000E-002   0.0000000000000000     
  0.37500000000000000       0.12500000000000000        0.0000000000000000     
  0.40625000000000000       0.12500000000000000        0.0000000000000000     
  0.43750000000000000       0.12500000000000000        0.0000000000000000     
  0.46875000000000000       0.12500000000000000        0.0000000000000000     
  0.50000000000000000       0.12500000000000000        0.0000000000000000     
  0.50000000000000000        0.0000000000000000        0.0000000000000000     
  0.53125000000000000        0.0000000000000000        0.0000000000000000     
  0.56250000000000000        0.0000000000000000        0.0000000000000000     
  0.59375000000000000        0.0000000000000000        0.0000000000000000     
  0.62500000000000000        0.0000000000000000        0.0000000000000000     
  0.50000000000000000        3.1250000000000000E-002   0.0000000000000000     
  0.53125000000000000        3.1250000000000000E-002   0.0000000000000000     
  0.56250000000000000        3.1250000000000000E-002   0.0000000000000000     
  0.59375000000000000        3.1250000000000000E-002   0.0000000000000000     
  0.62500000000000000        3.1250000000000000E-002   0.0000000000000000     
  0.50000000000000000        6.2500000000000000E-002   0.0000000000000000     
  0.53125000000000000        6.2500000000000000E-002   0.0000000000000000     
  0.56250000000000000        6.2500000000000000E-002   0.0000000000000000     
  0.59375000000000000        6.2500000000000000E-002   0.0000000000000000     
  0.62500000000000000        6.2500000000000000E-002   0.0000000000000000     
  0.50000000000000000        9.3750000000000000E-002   0.0000000000000000     
  0.53125000000000000        9.3750000000000000E-002   0.0000000000000000     
  0.56250000000000000        9.3750000000000000E-002   0.0000000000000000     
  0.59375000000000000        9.3750000000000000E-002   0.0000000000000000     
  0.62500000000000000        9.3750000000000000E-002   0.0000000000000000     
  0.50000000000000000       0.12500000000000000        0.0000000000000000     
  0.53125000000000000       0.12500000000000000        0.0000000000000000     
  0.56250000000000000       0.12500000000000000        0.0000000000000000     
[...]
 <PointData>
 <DataArray  type="Float64" Name="disp" NumberOfComponents="3" format="ascii">
   0.0000000000000000        0.0000000000000000        0.0000000000000000     
   6.0960668781095744E-003   3.7904995134035446E-003   0.0000000000000000     
   1.1666148649126721E-002   7.3241032903459706E-003   0.0000000000000000     
   1.6710245313051438E-002   1.0600811330827277E-002   0.0000000000000000     
   2.1228356869883728E-002   1.3620623634847465E-002   0.0000000000000000     
   0.0000000000000000        0.0000000000000000        0.0000000000000000     
   4.8911449319930193E-003   3.0222941893846876E-003   0.0000000000000000     
   9.5735983146620386E-003   6.0608929841383490E-003   0.0000000000000000     
   1.4047360148007056E-002   9.1157963842609848E-003   0.0000000000000000     
   1.8312430432028078E-002   1.2187004389752594E-002   0.0000000000000000     
   0.0000000000000000        0.0000000000000000        0.0000000000000000     
   3.9534936575733280E-003   2.4253197269747265E-003   0.0000000000000000     
   7.9104796079471386E-003   5.0633151001515551E-003   0.0000000000000000     
   1.1870957851121432E-002   7.9139861195304841E-003   0.0000000000000000     
   1.5834928387096204E-002   1.0977332785111515E-002   0.0000000000000000     
   0.0000000000000000        0.0000000000000000        0.0000000000000000     
   3.2831130548504985E-003   1.9995761261736625E-003   0.0000000000000000     
   6.6767925289820170E-003   4.3313696383855882E-003   0.0000000000000000     
   1.0181038422394555E-002   6.9953805366357764E-003   0.0000000000000000     
   1.3795850735088114E-002   9.9916088209242235E-003   0.0000000000000000     
   0.0000000000000000        0.0000000000000000        0.0000000000000000     
   2.8800031238245317E-003   1.7450633869814953E-003   0.0000000000000000     
   5.8725370777666756E-003   3.8650565988404481E-003   0.0000000000000000     
   8.9776018618264331E-003   6.3599796355768594E-003   0.0000000000000000     
   1.2195197476003802E-002   9.2298324971907281E-003   0.0000000000000000     
   2.1228356869883728E-002   1.3620623634847465E-002   0.0000000000000000     
   2.5433360087598375E-002   1.6614045798949168E-002   0.0000000000000000     
   2.9538131734170185E-002   1.9811583419675018E-002   0.0000000000000000     
   3.3542671809599134E-002   2.3213236497025024E-002   0.0000000000000000     
   3.7446980313885242E-002   2.6819005030999172E-002   0.0000000000000000     
   1.8312430432028078E-002   1.2187004389752594E-002   0.0000000000000000     
   2.2406990246962737E-002   1.5342861583823109E-002   0.0000000000000000     
   2.6369220673048682E-002   1.8651712549682467E-002   0.0000000000000000     
   3.0199121710285909E-002   2.2113557287330665E-002   0.0000000000000000     
   3.3896693358674422E-002   2.5728395796767708E-002   0.0000000000000000     
   1.5834928387096204E-002   1.0977332785111515E-002   0.0000000000000000     
   1.9730567844701622E-002   1.4212230347785222E-002   0.0000000000000000     
   2.3486052852767843E-002   1.7577554058442177E-002   0.0000000000000000     
   2.7101383411294866E-002   2.1073303917082373E-002   0.0000000000000000     
   3.0576559520282699E-002   2.4699479923705820E-002   0.0000000000000000     
   1.3795850735088114E-002   9.9916088209242235E-003   0.0000000000000000     
   1.7404092880815038E-002   1.3222152090835493E-002   0.0000000000000000     
   2.0888628273327672E-002   1.6589107945954130E-002   0.0000000000000000     
   2.4249456912626016E-002   2.0092476386280134E-002   0.0000000000000000     
   2.7486578798710075E-002   2.3732257411813514E-002   0.0000000000000000     
   1.2195197476003802E-002   9.2298324971907281E-003   0.0000000000000000     
   1.5427565355302979E-002   1.2372626812973927E-002   0.0000000000000000     
   1.8576946934728167E-002   1.5686374212218336E-002   0.0000000000000000     
   2.1643342214279351E-002   1.9171074694923955E-002   0.0000000000000000     
   2.4626751193956544E-002   2.2826728261090778E-002   0.0000000000000000     
   3.7446980313885242E-002   2.6819005030999172E-002   0.0000000000000000     
   4.1254924867715786E-002   3.0624678331997064E-002   0.0000000000000000     
   4.4970373091778044E-002   3.4626045710418302E-002   0.0000000000000000     
   4.8593324986072044E-002   3.8823107166262867E-002   0.0000000000000000     
   5.2123780550597743E-002   4.3215862699530767E-002   0.0000000000000000     
   3.3896693358674422E-002   2.5728395796767708E-002   0.0000000000000000     
   3.7484900061679940E-002   2.9525299264651014E-002   0.0000000000000000     
   4.0986706262768180E-002   3.3533338877638000E-002   0.0000000000000000     
   4.4402111961939147E-002   3.7752514635728686E-002   0.0000000000000000     
   4.7731117159192843E-002   4.2182826538923052E-002   0.0000000000000000     
   3.0576559520282699E-002   2.4699479923705820E-002   0.0000000000000000     
   3.3941001454201342E-002   2.8500697368581938E-002   0.0000000000000000     
   3.7224129487520810E-002   3.2521571541980154E-002   0.0000000000000000     
   4.0425943620241107E-002   3.6762102443900456E-002   0.0000000000000000     
   4.3546443852362240E-002   4.1222290074342867E-002   0.0000000000000000     
   2.7486578798710075E-002   2.3732257411813514E-002   0.0000000000000000     
   3.0623229045279997E-002   2.7550872643789852E-002   0.0000000000000000     
   3.3682642766035942E-002   3.1590743703444744E-002   0.0000000000000000     
   3.6664819960977917E-002   3.5851870590778198E-002   0.0000000000000000     
   3.9569760630105914E-002   4.0334253305790206E-002   0.0000000000000000     
   2.4626751193956544E-002   2.2826728261090778E-002   0.0000000000000000     
   2.7531582834915899E-002   2.6675825090274746E-002   0.0000000000000000     
   3.0362246098313572E-002   3.0740855362031781E-002   0.0000000000000000     
   3.3118740984149561E-002   3.5021819076361892E-002   0.0000000000000000     
   3.5801067492423878E-002   3.9518716233265069E-002   0.0000000000000000     
   5.2123780550597743E-002   4.3215862699530767E-002   0.0000000000000000     
   5.5556040630249839E-002   4.7805804078443974E-002   0.0000000000000000     
   5.8884406069922991E-002   5.2594423071224479E-002   0.0000000000000000     
   6.2108876869617198E-002   5.7581719677872248E-002   0.0000000000000000     
   6.5229453029332460E-002   6.2767693898387308E-002   0.0000000000000000     
   4.7731117159192843E-002   4.2182826538923052E-002   0.0000000000000000     
   5.0969286079081209E-002   4.6815486278096716E-002   0.0000000000000000     
   5.4112182946156176E-002   5.1641705544125303E-002   0.0000000000000000     
   5.7159807760417750E-002   5.6661484337008808E-002   0.0000000000000000     
   6.0112160521865944E-002   6.1874822656747229E-002   0.0000000000000000     
   4.3546443852362240E-002   4.1222290074342867E-002   0.0000000000000000     
   4.6582671424134123E-002   4.5888035637868169E-002   0.0000000000000000     
   4.9531667575806688E-002   5.0745240339037198E-002   0.0000000000000000     
   5.2393432307379945E-002   5.5793904177849935E-002   0.0000000000000000     
   5.5167965618853877E-002   6.1034027154306413E-002   0.0000000000000000     
   3.9569760630105914E-002   4.0334253305790206E-002   0.0000000000000000     
   4.2396196665408573E-002   4.5023452157758326E-002   0.0000000000000000     
   4.5142859958874515E-002   4.9905027455960156E-002   0.0000000000000000     
   4.7809750510503755E-002   5.4978979200395656E-002   0.0000000000000000     
   5.0396868320296280E-002   6.0245307391064852E-002   0.0000000000000000     
   3.5801067492423878E-002   3.9518716233265069E-002   0.0000000000000000     
   3.8409861802904559E-002   4.4221735837767201E-002   0.0000000000000000     
   4.0945760095359669E-002   4.9121066894894157E-002   0.0000000000000000     
   4.3408762369789189E-002   5.4216709404645951E-002   0.0000000000000000     
   4.5798868626193145E-002   5.9508663367022561E-002   0.0000000000000000     
   6.5229453029332460E-002   6.2767693898387308E-002   0.0000000000000000     
   6.8255604401723458E-002   6.8146101327313413E-002   0.0000000000000000     
   7.1196800839444838E-002   7.3710697559194252E-002   0.0000000000000000     
   7.4053042342496600E-002   7.9461482594029895E-002   0.0000000000000000     
   7.6824328910878772E-002   8.5398456431820285E-002   0.0000000000000000     
   6.0112160521865944E-002   6.1874822656747229E-002   0.0000000000000000     
   6.2974465698735327E-002   6.7278417840548305E-002   0.0000000000000000     
   6.5751947759260534E-002   7.2868967225619793E-002   0.0000000000000000     
   6.8444606703441532E-002   7.8646470811961688E-002   0.0000000000000000     
   7.1052442531278334E-002   8.4610928599573976E-002   0.0000000000000000     
   5.5167965618853877E-002   6.1034027154306413E-002   0.0000000000000000     
   5.7857408719671717E-002   6.6463266163981613E-002   0.0000000000000000     
   6.0463902819276646E-002   7.2079278102450628E-002   0.0000000000000000     
   6.2987447917668679E-002   7.7882062969713409E-002   0.0000000000000000     
   6.5428044014847836E-002   8.3871620765769955E-002   0.0000000000000000     
   5.0396868320296280E-002   6.0245307391064852E-002   0.0000000000000000     
   5.2904433464532601E-002   6.5700646297613352E-002   0.0000000000000000     
   5.5332666019493208E-002   7.1341630189686728E-002   0.0000000000000000     
   5.7681565985178089E-002   7.7168259067285028E-002   0.0000000000000000     
   5.9951133361587250E-002   8.3180532930408266E-002   0.0000000000000000     
   4.5798868626193145E-002   5.9508663367022561E-002   0.0000000000000000     
   4.8115539933317991E-002   6.4990558241443466E-002   0.0000000000000000     
   5.0358237359910178E-002   7.0656023487328162E-002   0.0000000000000000     
   5.2526960905969720E-002   7.6505059104676601E-002   0.0000000000000000     
   5.4621710571496611E-002   8.2537665093488824E-002   0.0000000000000000     
   7.6824328910878772E-002   8.5398456431820285E-002   0.0000000000000000     
   7.9500997806471865E-002   9.1505075763692573E-002   0.0000000000000000     
   8.2073386291156389E-002   9.7764797280773835E-002   0.0000000000000000     
   8.4541494364932357E-002  0.10417762098306409        0.0000000000000000     
   8.6905322027799770E-002  0.11074354687056331        0.0000000000000000     
   7.1052442531278334E-002   8.4610928599573976E-002   0.0000000000000000     
   7.3569889108201988E-002   9.0745255556933371E-002   0.0000000000000000     
   7.5991380299643516E-002   9.7032366652516550E-002   0.0000000000000000     
   7.8316916105602929E-002  0.10347226188632351        0.0000000000000000     
   8.0546496526080202E-002  0.11006494125835425        0.0000000000000000     
   6.5428044014847836E-002   8.3871620765769955E-002   0.0000000000000000     
   6.7783012534951267E-002   9.0031139667312229E-002   0.0000000000000000     
   7.0049674902116207E-002   9.6343807851032040E-002   0.0000000000000000     
   7.2228031116342600E-002  0.10280962531692944        0.0000000000000000     
   7.4318081177630502E-002  0.10942859206500441        0.0000000000000000     
   5.9951133361587250E-002   8.3180532930408266E-002   0.0000000000000000     
   6.2140368086719702E-002   8.9362728094829091E-002   0.0000000000000000     
   6.4248270098574409E-002   9.5699120876320307E-002   0.0000000000000000     
   6.6274839397151397E-002  0.10218971127488188        0.0000000000000000     
   6.8220075982450640E-002  0.10883449929051384        0.0000000000000000     
   5.4621710571496611E-002   8.2537665093488824E-002   0.0000000000000000     
   5.6641955763507293E-002   8.8740020839484013E-002   0.0000000000000000     
   5.8587165889018189E-002   9.5098305728381335E-002   0.0000000000000000     
   6.0457340948029292E-002  0.10161251976018082        0.0000000000000000     
   6.2252480940540623E-002  0.10828266293488245        0.0000000000000000     
   8.6905322027799770E-002  0.11074354687056331        0.0000000000000000     
   8.9166956107919276E-002  0.11745403103569717        0.0000000000000000     
   9.1328483433451527E-002  0.12430052957089123        0.0000000000000000     
   9.3389904004396507E-002  0.13128304247614553        0.0000000000000000     
   9.5351217820754230E-002  0.13840156975146006        0.0000000000000000     
   8.0546496526080202E-002  0.11006494125835425        0.0000000000000000     
   8.2684835207490898E-002  0.11680245428840556        0.0000000000000000     
   8.4736645796250482E-002  0.12367685049627423        0.0000000000000000     
   8.6701928292359010E-002  0.13068812988196021        0.0000000000000000     
   8.8580682695816440E-002  0.13783629244546358        0.0000000000000000     
   7.4318081177630502E-002  0.10942859206500441        0.0000000000000000     
   7.6325804335786701E-002  0.11619261242253821        0.0000000000000000     
   7.8257179840617988E-002  0.12309359071681206        0.0000000000000000     
   8.0112207692124418E-002  0.13013152694782595        0.0000000000000000     
   8.1890887890305936E-002  0.13730642111557989        0.0000000000000000     
   6.8220075982450640E-002  0.10883449929051384        0.0000000000000000     
   7.0089863492806659E-002  0.11562450543809512        0.0000000000000000     
   7.1890085566554018E-002  0.12255075023250471        0.0000000000000000     
   7.3620742203692704E-002  0.12961323367374269        0.0000000000000000     
   7.5281833404222703E-002  0.13681195576180896        0.0000000000000000     
   6.2252480940540623E-002  0.10828266293488245        0.0000000000000000     
   6.3977012678550826E-002  0.11509813333507626        0.0000000000000000     
   6.5635362974058600E-002  0.12204832904335225        0.0000000000000000     
   6.7227531827063897E-002  0.12913325005971044        0.0000000000000000     
   6.8753519237566757E-002  0.13635289638415082        0.0000000000000000     
   9.5351217820754230E-002  0.13840156975146006        0.0000000000000000     
   9.7169835614716454E-002  0.14564088807476455        0.0000000000000000     
   9.8803168118474921E-002  0.15298577412398878        0.0000000000000000     
  0.10025121533202962       0.16043622789913278        0.0000000000000000     
  0.10151397725538054       0.16799224940019650        0.0000000000000000     
   8.8580682695816440E-002  0.13783629244546358        0.0000000000000000     
   9.0354803117638993E-002  0.14510471135552067        0.0000000000000000     
   9.2006183668842917E-002  0.15247675978086792        0.0000000000000000     
   9.3534824349428169E-002  0.15995243772150525        0.0000000000000000     
   9.4940725159394751E-002  0.16753174517743274        0.0000000000000000     
   8.1890887890305936E-002  0.13730642111557989        0.0000000000000000     
   8.3590549423073410E-002  0.14460145101849117        0.0000000000000000     
   8.5208521278337737E-002  0.15199979445497697        0.0000000000000000     
   8.6744803456098876E-002  0.15950145142503744        0.0000000000000000     
   8.8199395956356827E-002  0.16710642192867242        0.0000000000000000     
   7.5281833404222703E-002  0.13681195576180896        0.0000000000000000     
   7.6877074531019704E-002  0.14413110706367596        0.0000000000000000     
   7.8410180946959368E-002  0.15155487814631610        0.0000000000000000     
   7.9881152652041723E-002  0.15908326900972924        0.0000000000000000     
   8.1289989646266755E-002  0.16671627965391550        0.0000000000000000     
   6.8753519237566757E-002  0.13635289638415082        0.0000000000000000     
   7.0214378441477848E-002  0.14369367949107517        0.0000000000000000     
   7.1611162674707851E-002  0.15114201085488510        0.0000000000000000     
   7.2943871937256738E-002  0.15869789047558078        0.0000000000000000     
   7.4212506229124550E-002  0.16636131835316206        0.0000000000000000     
   0.0000000000000000        0.0000000000000000        0.0000000000000000     
   2.8800031238245317E-003   1.7450633869814953E-003   0.0000000000000000     
   5.8725370777666756E-003   3.8650565988404481E-003   0.0000000000000000     
   8.9776018618264331E-003   6.3599796355768594E-003   0.0000000000000000     
   1.2195197476003802E-002   9.2298324971907281E-003   0.0000000000000000     
   0.0000000000000000        0.0000000000000000        0.0000000000000000     
   2.6102966440141890E-003   1.5891293714550346E-003   0.0000000000000000     
   5.2896918115404763E-003   3.5570711292615743E-003   0.0000000000000000     
   8.0381855025788602E-003   5.9038252734196182E-003   0.0000000000000000     
   1.0855777717129344E-002   8.6293918039291682E-003   0.0000000000000000     
   0.0000000000000000        0.0000000000000000        0.0000000000000000     
   2.3401263949382302E-003   1.4591219416510918E-003   0.0000000000000000     
   4.7202352875427775E-003   3.3001083773944043E-003   0.0000000000000000     
   7.1403266778136392E-003   5.5229593072299377E-003   0.0000000000000000     
   9.6004005657508197E-003   8.1276747311576913E-003   0.0000000000000000     
   0.0000000000000000        0.0000000000000000        0.0000000000000000     
   2.0694923765966571E-003   1.3550410975696667E-003   0.0000000000000000     
   4.1641675057735800E-003   3.0941683432389399E-003   0.0000000000000000     
   6.2840253875307674E-003   5.2173817370078195E-003   0.0000000000000000     
   8.4290660218682232E-003   7.7246812788763046E-003   0.0000000000000000     
   0.0000000000000000        0.0000000000000000        0.0000000000000000     
   1.7983945889894683E-003   1.2768868392107591E-003   0.0000000000000000     
   3.6214884662328830E-003   2.9392510267951793E-003   0.0000000000000000     
   5.4692816317302457E-003   4.9870925627532601E-003   0.0000000000000000     
   7.3417740854815547E-003   7.4204114470850027E-003   0.0000000000000000     
   1.2195197476003802E-002   9.2298324971907281E-003   0.0000000000000000     
   1.5427565355302979E-002   1.2372626812973927E-002   0.0000000000000000     
   1.8576946934728167E-002   1.5686374212218336E-002   0.0000000000000000     
   2.1643342214279351E-002   1.9171074694923955E-002   0.0000000000000000     
   2.4626751193956544E-002   2.2826728261090778E-002   0.0000000000000000     
   1.0855777717129344E-002   8.6293918039291682E-003   0.0000000000000000     
   1.3689137124241264E-002   1.1651574203771975E-002   0.0000000000000000     
   1.6484932392963947E-002   1.4888175955929799E-002   0.0000000000000000     
   1.9243163523297403E-002   1.8339197060402636E-002   0.0000000000000000     
   2.1963830515241624E-002   2.2004637517190482E-002   0.0000000000000000     
   9.6004005657508197E-003   8.1276747311576913E-003   0.0000000000000000     
   1.2076960043705696E-002   1.1046913952801078E-002   0.0000000000000000     
   1.4546508204029656E-002   1.4213336275783505E-002   0.0000000000000000     
   1.7009045046722692E-002   1.7626941700104974E-002   0.0000000000000000     
   1.9464570571784811E-002   2.1287730225765480E-002   0.0000000000000000     
   8.4290660218682232E-003   7.7246812788763046E-003   0.0000000000000000     
   1.0591034113696281E-002   1.0558646060061239E-002   0.0000000000000000     
   1.2761674367925278E-002   1.3661855171779459E-002   0.0000000000000000     
   1.4940986784555226E-002   1.7034308614030973E-002   0.0000000000000000     
   1.7128971363586109E-002   2.0676006386815767E-002   0.0000000000000000     
   7.3417740854815547E-003   7.4204114470850027E-003   0.0000000000000000     
   9.2313593342130146E-003   1.0186770525552453E-002   0.0000000000000000     
   1.1130430884650828E-002   1.3233732643917660E-002   0.0000000000000000     
   1.3038988736794994E-002   1.6561297802180627E-002   0.0000000000000000     
   1.4957032890645516E-002   2.0169466000341345E-002   0.0000000000000000     
   2.4626751193956544E-002   2.2826728261090778E-002   0.0000000000000000     
   2.7531582834915899E-002   2.6675825090274746E-002   0.0000000000000000     