 <VTKFile type="UnstructuredGrid"  version="0.1"   >
 <UnstructuredGrid>
 <Piece  NumberOfPoints="           400 "  NumberOfCells="          256 ">
 <Points>
 <DataArray  type="Float64" NumberOfComponents="3"  format="ascii" >
   0.0000000000000000        0.0000000000000000        0.0000000000000000     
   6.2500000000000000E-002   0.0000000000000000        0.0000000000000000     
  0.12500000000000000        0.0000000000000000        0.0000000000000000     
  0.18750000000000000        0.0000000000000000        0.0000000000000000     
  0.25000000000000000        0.0000000000000000        0.0000000000000000     
   0.0000000000000000        6.2500000000000000E-002   0.0000000000000000     
   6.2500000000000000E-002   6.2500000000000000E-002   0.0000000000000000     
  0.12500000000000000        6.2500000000000000E-002   0.0000000000000000     
  0.18750000000000000        6.2500000000000000E-002   0.0000000000000000     
  0.25000000000000000        6.2500000000000000E-002   0.0000000000000000     
   0.0000000000000000       0.12500000000000000        0.0000000000000000     
   6.2500000000000000E-002  0.12500000000000000        0.0000000000000000     
  0.12500000000000000       0.12500000000000000        0.0000000000000000     
  0.18750000000000000       0.12500000000000000        0.0000000000000000     
  0.25000000000000000       0.12500000000000000        0.0000000000000000     
   0.0000000000000000       0.18750000000000000        0.0000000000000000     
   6.2500000000000000E-002  0.18750000000000000        0.0000000000000000     
  0.12500000000000000       0.18750000000000000        0.0000000000000000     
  0.18750000000000000       0.18750000000000000        0.0000000000000000     
  0.25000000000000000       0.18750000000000000        0.0000000000000000     
   0.0000000000000000       0.25000000000000000        0.0000000000000000     
   6.2500000000000000E-002  0.25000000000000000        0.0000000000000000     
  0.12500000000000000       0.25000000000000000        0.0000000000000000     
  0.18750000000000000       0.25000000000000000        0.0000000000000000     
  0.25000000000000000       0.25000000000000000        0.0000000000000000     
  0.25000000000000000        0.0000000000000000        0.0000000000000000     
  0.31250000000000000        0.0000000000000000        0.0000000000000000     
  0.37500000000000000        0.0000000000000000        0.0000000000000000     
  0.43750000000000000        0.0000000000000000        0.0000000000000000     
  0.50000000000000000        0.0000000000000000        0.0000000000000000     
  0.25000000000000000        6.2500000000000000E-002   0.0000000000000000     
  0.31250000000000000        6.2500000000000000E-002   0.0000000000000000     
  0.37500000000000000        6.2500000000000000E-002   0.0000000000000000     
  0.43750000000000000        6.2500000000000000E-002   0.0000000000000000     
  0.50000000000000000        6.2500000000000000E-002   0.0000000000000000     
  0.25000000000000000       0.12500000000000000        0.0000000000000000     
  0.31250000000000000       0.12500000000000000        0.0000000000000000     
  0.37500000000000000       0.12500000000000000        0.0000000000000000     
  0.43750000000000000       0.12500000000000000        0.0000000000000000     
  0.50000000000000000       0.12500000000000000        0.0000000000000000     
  0.25000000000000000       0.18750000000000000        0.0000000000000000     
  0.31250000000000000       0.18750000000000000        0.0000000000000000     
  0.37500000000000000       0.18750000000000000        0.0000000000000000     
  0.43750000000000000       0.18750000000000000        0.0000000000000000     
  0.50000000000000000       0.18750000000000000        0.0000000000000000     
  0.25000000000000000       0.25000000000000000        0.0000000000000000     
  0.31250000000000000       0.25000000000000000        0.0000000000000000     
  0.37500000000000000       0.25000000000000000        0.0000000000000000     
  0.43750000000000000       0.25000000000000000        0.0000000000000000     
  0.50000000000000000       0.25000000000000000        0.0000000000000000     
  0.50000000000000000        0.0000000000000000        0.0000000000000000     
  0.56250000000000000        0.0000000000000000        0.0000000000000000     
  0.62500000000000000        0.0000000000000000        0.0000000000000000     
  0.68750000000000000        0.0000000000000000        0.0000000000000000     
  0.75000000000000000        0.0000000000000000        0.0000000000000000     
  0.50000000000000000        6.2500000000000000E-002   0.0000000000000000     
  0.56250000000000000        6.2500000000000000E-002   0.0000000000000000     
  0.62500000000000000        6.2500000000000000E-002   0.0000000000000000     
  0.68750000000000000        6.2500000000000000E-002   0.0000000000000000     
  0.75000000000000000        6.2500000000000000E-002   0.0000000000000000     
  0.50000000000000000       0.12500000000000000        0.0000000000000000     
  0.56250000000000000       0.12500000000000000        0.0000000000000000     
  0.62500000000000000       0.12500000000000000        0.0000000000000000     
  0.68750000000000000       0.12500000000000000        0.0000000000000000     
  0.75000000000000000       0.12500000000000000        0.0000000000000000     
  0.50000000000000000       0.18750000000000000        0.0000000000000000     
  0.56250000000000000       0.18750000000000000        0.0000000000000000     
  0.62500000000000000       0.18750000000000000        0.0000000000000000     
  0.68750000000000000       0.18750000000000000        0.0000000000000000     
  0.75000000000000000       0.18750000000000000        0.0000000000000000     
  0.50000000000000000       0.25000000000000000        0.0000000000000000     
  0.56250000000000000       0.25000000000000000        0.0000000000000000     
  0.62500000000000000       0.25000000000000000        0.0000000000000000     
  0.68750000000000000       0.25000000000000000        0.0000000000000000     
  0.75000000000000000       0.25000000000000000        0.0000000000000000     
  0.75000000000000000        0.0000000000000000        0.0000000000000000     
  0.81250000000000000        0.0000000000000000        0.0000000000000000     
  0.87500000000000000        0.0000000000000000        0.0000000000000000     
  0.93750000000000000        0.0000000000000000        0.0000000000000000     
   1.0000000000000000        0.0000000000000000        0.0000000000000000     
  0.75000000000000000        6.2500000000000000E-002   0.0000000000000000     
  0.81250000000000000        6.2500000000000000E-002   0.0000000000000000     
  0.87500000000000000        6.2500000000000000E-002   0.0000000000000000     
  0.93750000000000000        6.2500000000000000E-002   0.0000000000000000     
   1.0000000000000000        6.2500000000000000E-002   0.0000000000000000     
  0.75000000000000000       0.12500000000000000        0.0000000000000000     
  0.81250000000000000       0.12500000000000000        0.0000000000000000     
  0.87500000000000000       0.12500000000000000        0.0000000000000000     
  0.93750000000000000       0.12500000000000000        0.0000000000000000     
   1.0000000000000000       0.12500000000000000        0.0000000000000000     
  0.75000000000000000       0.18750000000000000        0.0000000000000000     
  0.81250000000000000       0.18750000000000000        0.0000000000000000     
  0.87500000000000000       0.18750000000000000        0.0000000000000000     
  0.93750000000000000       0.18750000000000000        0.0000000000000000     
   1.0000000000000000       0.18750000000000000        0.0000000000000000     
  0.75000000000000000       0.25000000000000000        0.0000000000000000     
  0.81250000000000000       0.25000000000000000        0.0000000000000000     
  0.87500000000000000       0.25000000000000000        0.0000000000000000     
  0.93750000000000000       0.25000000000000000        0.0000000000000000     
   1.0000000000000000       0.25000000000000000        0.0000000000000000     
   0.0000000000000000       0.25000000000000000        0.0000000000000000     
   6.2500000000000000E-002  0.25000000000000000        0.0000000000000000     
  0.12500000000000000       0.25000000000000000        0.0000000000000000     
  0.18750000000000000       0.25000000000000000        0.0000000000000000     
  0.25000000000000000       0.25000000000000000        0.0000000000000000     
   0.0000000000000000       0.31250000000000000        0.0000000000000000     
   6.2500000000000000E-002  0.31250000000000000        0.0000000000000000     
  0.12500000000000000       0.31250000000000000        0.0000000000000000     
  0.18750000000000000       0.31250000000000000        0.0000000000000000     
  0.25000000000000000       0.31250000000000000        0.0000000000000000     
   0.0000000000000000       0.37500000000000000        0.0000000000000000     
   6.2500000000000000E-002  0.37500000000000000        0.0000000000000000     
  0.12500000000000000       0.37500000000000000        0.0000000000000000     
  0.18750000000000000       0.37500000000000000        0.0000000000000000     
  0.25000000000000000       0.37500000000000000        0.0000000000000000     
   0.0000000000000000       0.43750000000000000        0.0000000000000000     
   6.2500000000000000E-002  0.43750000000000000        0.0000000000000000     
  0.12500000000000000       0.43750000000000000        0.0000000000000000     
  0.18750000000000000       0.43750000000000000        0.0000000000000000     
  0.25000000000000000       0.43750000000000000        0.0000000000000000     
   0.0000000000000000       0.50000000000000000        0.0000000000000000     
   6.2500000000000000E-002  0.50000000000000000        0.0000000000000000     
  0.12500000000000000       0.50000000000000000        0.0000000000000000     
[...]
 <PointData>
 <DataArray  type="Float64" Name="disp" NumberOfComponents="3" format="ascii">
   0.0000000000000000        0.0000000000000000        0.0000000000000000     
   1.0687784425588948E-002   6.3640144103108741E-003   0.0000000000000000     
   2.0498017464791362E-002   1.2952706867545009E-002   0.0000000000000000     
   2.9430699117607248E-002   1.9766077371702405E-002   0.0000000000000000     
   3.7485829384036592E-002   2.6804125922783060E-002   0.0000000000000000     
   0.0000000000000000        0.0000000000000000        0.0000000000000000     
   8.1738724698241626E-003   5.0272386291902466E-003   0.0000000000000000     
   1.5979655183396967E-002   1.0763023408566483E-002   0.0000000000000000     
   2.3417348140718407E-002   1.7207354338128714E-002   0.0000000000000000     
   3.0486951341788492E-002   2.4360231417876931E-002   0.0000000000000000     
   0.0000000000000000        0.0000000000000000        0.0000000000000000     
   6.1378926002314798E-003   4.0135921578319366E-003   0.0000000000000000     
   1.2244765982084165E-002   9.0825358512188602E-003   0.0000000000000000     
   1.8320620145558054E-002   1.5206831080160771E-002   0.0000000000000000     
   2.4365455090653142E-002   2.2386477844657665E-002   0.0000000000000000     
   0.0000000000000000        0.0000000000000000        0.0000000000000000     
   4.5798448168109024E-003   3.3230749962359449E-003   0.0000000000000000     
   9.2933498608529629E-003   7.9112441955021384E-003   0.0000000000000000     
   1.4140515132126184E-002   1.3764507597798575E-002   0.0000000000000000     
   1.9121340630630562E-002   2.0882865203125260E-002   0.0000000000000000     
   0.0000000000000000        0.0000000000000000        0.0000000000000000     
   3.4997291195624290E-003   2.9556871444022725E-003   0.0000000000000000     
   7.1254068197033624E-003   7.2491484414163162E-003   0.0000000000000000     
   1.0877033100422800E-002   1.2880383891042133E-002   0.0000000000000000     
   1.4754607961720742E-002   1.9849393493279719E-002   0.0000000000000000     
   3.7485829384036592E-002   2.6804125922783060E-002   0.0000000000000000     
   4.4926964319801699E-002   3.4394698356713826E-002   0.0000000000000000     
   5.2017659980624853E-002   4.2865640509421564E-002   0.0000000000000000     
   5.8757916366506041E-002   5.2216952380906269E-002   0.0000000000000000     
   6.5147733477445277E-002   6.2448633971167941E-002   0.0000000000000000     
   3.0486951341788492E-002   2.4360231417876931E-002   0.0000000000000000     
   3.7189091658721370E-002   3.2266168457831985E-002   0.0000000000000000     
   4.3524395963631210E-002   4.0969679268014703E-002   0.0000000000000000     
   4.9492864256518006E-002   5.0470763848425110E-002   0.0000000000000000     
   5.5094496537381771E-002   6.0769422199063172E-002   0.0000000000000000     
   2.4365455090653142E-002   2.2386477844657665E-002   0.0000000000000000     
   3.0221082667678447E-002   3.0473497484359902E-002   0.0000000000000000     
   3.5729314726942976E-002   3.9319911338917830E-002   0.0000000000000000     
   4.0890151268446723E-002   4.8925719408331451E-002   0.0000000000000000     
   4.5703592292189697E-002   5.9290921692600765E-002   0.0000000000000000     
   1.9121340630630562E-002   2.0882865203125260E-002   0.0000000000000000     
   2.4022937346672935E-002   2.9016685436297585E-002   0.0000000000000000     
   2.8632416270560145E-002   3.7916336722130926E-002   0.0000000000000000     
   3.2949777402292192E-002   4.7581819060625308E-002   0.0000000000000000     
   3.6975020741869064E-002   5.8013132451780705E-002   0.0000000000000000     
   1.4754607961720742E-002   1.9849393493279719E-002   0.0000000000000000     
   1.8594655695704832E-002   2.7895732313645030E-002   0.0000000000000000     
   2.2233700594482719E-002   3.6758955417654011E-002   0.0000000000000000     
   2.5671742658054390E-002   4.6439062805306665E-002   0.0000000000000000     
   2.8908781886419856E-002   5.6936054476602979E-002   0.0000000000000000     
   6.5147733477445277E-002   6.2448633971167941E-002   0.0000000000000000     
   7.1172718272560859E-002   7.3449137160841116E-002   0.0000000000000000     
   7.6818477710971111E-002   8.5106913830560321E-002   0.0000000000000000     
   8.2085011792675994E-002   9.7421963980325571E-002   0.0000000000000000     
   8.6972320517675533E-002  0.11039428761013687        0.0000000000000000     
   5.5094496537381771E-002   6.0769422199063172E-002   0.0000000000000000     
   6.0350032992404747E-002   7.1810369694214074E-002   0.0000000000000000     
   6.5280213807769175E-002   8.3538321708162944E-002   0.0000000000000000     
   6.9885038983475076E-002   9.5953278240909795E-002   0.0000000000000000     
   7.4164508519522457E-002  0.10905523929245463        0.0000000000000000     
   4.5703592292189697E-002   5.9290921692600765E-002   0.0000000000000000     
   5.0204563098970395E-002   7.0387807253972756E-002   0.0000000000000000     
   5.4427988989587332E-002   8.2188665154694418E-002   0.0000000000000000     
   5.8373869964040523E-002   9.4693495394765792E-002   0.0000000000000000     
   6.2042206022329946E-002  0.10790229797418681        0.0000000000000000     
   3.6975020741869064E-002   5.8013132451780705E-002   0.0000000000000000     
   4.0736308592257839E-002   6.9181449840117190E-002   0.0000000000000000     
   4.4261803256425591E-002   8.1057944170154800E-002   0.0000000000000000     
   4.7551504734372314E-002   9.3642615441893534E-002   0.0000000000000000     
   5.0605413026098015E-002  0.10693546365533339        0.0000000000000000     
   2.8908781886419856E-002   5.6936054476602979E-002   0.0000000000000000     
   3.1945269472267050E-002   6.8191297452647306E-002   0.0000000000000000     
   3.4781656608283924E-002   8.0146158754544006E-002   0.0000000000000000     
   3.7417943294470457E-002   9.2800638382293049E-002   0.0000000000000000     
   3.9854129530826669E-002  0.10615473633589442        0.0000000000000000     
   8.6972320517675533E-002  0.11039428761013687        0.0000000000000000     
   9.1473196002176349E-002  0.12394287682989884        0.0000000000000000     
   9.5580430362385019E-002  0.13798672374951618        0.0000000000000000     
   9.9294023598301542E-002  0.15252582836898884        0.0000000000000000     
  0.10261397570992595       0.16756019068831685        0.0000000000000000     
   7.4164508519522457E-002  0.10905523929245463        0.0000000000000000     
   7.8110254918835692E-002  0.12273963437829338        0.0000000000000000     
   8.1713910684339253E-002  0.13690189301392200        0.0000000000000000     
   8.4975475816033055E-002  0.15154201519934055        0.0000000000000000     
   8.7894950313917183E-002  0.16666000093454891        0.0000000000000000     
   6.2042206022329946E-002  0.10790229797418681        0.0000000000000000     
   6.5425890890679420E-002  0.12169761779504941        0.0000000000000000     
   6.8517818295312741E-002  0.13596199975944553        0.0000000000000000     
   7.1317988236229909E-002  0.15069544386737513        0.0000000000000000     
   7.3826400713430940E-002  0.16589795011883823        0.0000000000000000     
   5.0605413026098015E-002  0.10693546365533339        0.0000000000000000     
   5.3420103917707483E-002  0.12081682708016696        0.0000000000000000     
   5.5992153195305497E-002  0.13516704398608670        0.0000000000000000     
   5.8321560858892070E-002  0.14998611437309267        0.0000000000000000     
   6.0408326908467196E-002  0.16527403824118486        0.0000000000000000     
   3.9854129530826669E-002  0.10615473633589442        0.0000000000000000     
   4.2092893999919910E-002  0.12009726223364597        0.0000000000000000     
   4.4136915384317542E-002  0.13451702569384555        0.0000000000000000     
   4.5986193684019565E-002  0.14941402671649315        0.0000000000000000     
   4.7640728899025986E-002  0.16478826530158877        0.0000000000000000     
   0.0000000000000000        0.0000000000000000        0.0000000000000000     
   3.4997291195624290E-003   2.9556871444022725E-003   0.0000000000000000     
   7.1254068197033624E-003   7.2491484414163162E-003   0.0000000000000000     
   1.0877033100422800E-002   1.2880383891042133E-002   0.0000000000000000     
   1.4754607961720742E-002   1.9849393493279719E-002   0.0000000000000000     
   0.0000000000000000        0.0000000000000000        0.0000000000000000     
   2.6501338089458342E-003   2.7755918470295988E-003   0.0000000000000000     
   5.3479140175826355E-003   6.8925878635297177E-003   0.0000000000000000     
   8.0933406259104061E-003   1.2350988049500355E-002   0.0000000000000000     
   1.0886413633929143E-002   1.9150792404941514E-002   0.0000000000000000     
   0.0000000000000000        0.0000000000000000        0.0000000000000000     
   1.7836471854208930E-003   2.6469523488166055E-003   0.0000000000000000     
   3.5678486134380618E-003   6.6379017364106624E-003   0.0000000000000000     
   5.3526042840515058E-003   1.1972848162782169E-002   0.0000000000000000     
   7.1379141972612260E-003   1.8651791627931128E-002   0.0000000000000000     
   0.0000000000000000        0.0000000000000000        0.0000000000000000     
   9.0026924898760569E-004   2.5697686497632936E-003   0.0000000000000000     
   1.7852106072696388E-003   6.4850900600591510E-003   0.0000000000000000     
   2.6548240748460990E-003   1.1745964230887571E-002   0.0000000000000000     
   3.5091096517169884E-003   1.8352391162248551E-002   0.0000000000000000     
   0.0000000000000000        0.0000000000000000        0.0000000000000000     
  -3.5402811324886097E-013   2.5440407498696620E-003   0.0000000000000000     
  -9.2263241317780409E-013   6.4341528344751819E-003   0.0000000000000000     
  -1.7058130082070466E-012   1.1670336253816558E-002   0.0000000000000000     
  -2.7035696814961541E-012   1.8252591007893799E-002   0.0000000000000000     
   1.4754607961720742E-002   1.9849393493279719E-002   0.0000000000000000     
   1.8594655695704832E-002   2.7895732313645030E-002   0.0000000000000000     
   2.2233700594482719E-002   3.6758955417654011E-002   0.0000000000000000     
   2.5671742658054390E-002   4.6439062805306665E-002   0.0000000000000000     
   2.8908781886419856E-002   5.6936054476602979E-002   0.0000000000000000     
   1.0886413633929143E-002   1.9150792404941514E-002   0.0000000000000000     
   1.3649977352519334E-002   2.7061836611406577E-002   0.0000000000000000     
   1.6306876092561460E-002   3.5853956350448926E-002   0.0000000000000000     
   1.8857109854055514E-002   4.5527151622068551E-002   0.0000000000000000     
   2.1300678637001511E-002   5.6081422426265480E-002   0.0000000000000000     
   7.1379141972612260E-003   1.8651791627931128E-002   0.0000000000000000     
   8.9026419548616318E-003   2.6466196824586567E-002   0.0000000000000000     
   1.0625651158647133E-002   3.5207528445477532E-002   0.0000000000000000     
   1.2306941808617735E-002   4.4875786490604010E-002   0.0000000000000000     
   1.3946513904773430E-002   5.5470970959966018E-002   0.0000000000000000     
   3.5091096517169884E-003   1.8352391162248551E-002   0.0000000000000000     
   4.3526495027317296E-003   2.6108812953185005E-002   0.0000000000000000     
   5.1900257927397480E-003   3.4819671702739842E-002   0.0000000000000000     
   6.0212385217410453E-003   4.4484967410913047E-002   0.0000000000000000     
   6.8462876897356188E-003   5.5104700077704634E-002   0.0000000000000000     
  -2.7035696814961541E-012   1.8252591007893799E-002   0.0000000000000000     
  -3.8703754827798531E-012   2.5989684997201886E-002   0.0000000000000000     
  -5.1607033804777075E-012   3.4690386122235843E-002   0.0000000000000000     
  -6.5745515382222876E-012   4.4354694382995635E-002   0.0000000000000000     
  -8.1119208572566492E-012   5.4982609779481301E-002   0.0000000000000000     
   2.8908781886419856E-002   5.6936054476602979E-002   0.0000000000000000     
   3.1945269472267050E-002   6.8191297452647306E-002   0.0000000000000000     
   3.4781656608283924E-002   8.0146158754544006E-002   0.0000000000000000     
   3.7417943294470457E-002   9.2800638382293049E-002   0.0000000000000000     
   3.9854129530826669E-002  0.10615473633589442        0.0000000000000000     
   2.1300678637001511E-002   5.6081422426265480E-002   0.0000000000000000     
   2.3609366559743983E-002   6.7419503811410805E-002   0.0000000000000000     
   2.5754957740627509E-002   7.9444130825875647E-002   0.0000000000000000     
   2.7737452179652063E-002   9.2155303469660013E-002   0.0000000000000000     
   2.9556849876817653E-002  0.10555302174276390        0.0000000000000000     
   1.3946513904773430E-002   5.5470970959966018E-002   0.0000000000000000     
   1.5506520675434569E-002   6.6868222636255220E-002   0.0000000000000000     
   1.6949115348921504E-002   7.8942682302163281E-002   0.0000000000000000     
   1.8274297925234228E-002   9.1694349957690172E-002   0.0000000000000000     
   1.9482068404372745E-002  0.10512322560283596        0.0000000000000000     
   6.8462876897356188E-003   5.5104700077704634E-002   0.0000000000000000     
   7.6367318193387981E-003   6.6537453927180579E-002   0.0000000000000000     
   8.3641294331659108E-003   7.8641813183406892E-002   0.0000000000000000     
   9.0284805312169508E-003   9.1417777846383524E-002   0.0000000000000000     
   9.6297851134919260E-003  0.10486534791611055        0.0000000000000000     
  -8.1119208572566492E-012   5.4982609779481301E-002   0.0000000000000000     
  -8.5433231669651555E-012   6.6427197684186895E-002   0.0000000000000000     
  -6.6392696462108658E-012   7.8541523469606495E-002   0.0000000000000000     
  -2.3997578555388921E-012   9.1325587135740072E-002   0.0000000000000000     
   4.1752096571756603E-012  0.10477938868258768        0.0000000000000000     
   3.9854129530826669E-002  0.10615473633589442        0.0000000000000000     
   4.2092893999919910E-002  0.12009726223364597        0.0000000000000000     
   4.4136915384317542E-002  0.13451702569384555        0.0000000000000000     
   4.5986193684019565E-002  0.14941402671649315        0.0000000000000000     
   4.7640728899025986E-002  0.16478826530158877        0.0000000000000000     
   2.9556849876817653E-002  0.10555302174276390        0.0000000000000000     
   3.1221147083035413E-002  0.11953817930994609        0.0000000000000000     
   3.2738340049216448E-002  0.13401166983596532        0.0000000000000000     
   3.4108428775360765E-002  0.14897349332082163        0.0000000000000000     
   3.5331413261468367E-002  0.16442364976451498        0.0000000000000000     
   1.9482068404372745E-002  0.10512322560283596        0.0000000000000000     
   2.0581749112772718E-002  0.11913883436352687        0.0000000000000000     
   2.1582662376869826E-002  0.13365070136568930        0.0000000000000000     
   2.2484808196664069E-002  0.14865882660932314        0.0000000000000000     
   2.3288186572155443E-002  0.16416321009442847        0.0000000000000000     
   9.6297851134919260E-003  0.10486534791611055        0.0000000000000000     
   1.0174700089131837E-002  0.11889922739438834        0.0000000000000000     
   1.0669882367277686E-002  0.13343412028301743        0.0000000000000000     
   1.1115331947929472E-002  0.14847002658199768        0.0000000000000000     
   1.1511048831087198E-002  0.16400694629132925        0.0000000000000000     
   4.1752096571756603E-012  0.10477938868258768        0.0000000000000000     
   1.2112756544307990E-011  0.11881935840253047        0.0000000000000000     
   2.0440013613967634E-011  0.13336192658794968        0.0000000000000000     
   2.9156975499353838E-011  0.14840709323884532        0.0000000000000000     
   3.8263645724123663E-011  0.16395485835521734        0.0000000000000000     
   0.0000000000000000        0.0000000000000000        0.0000000000000000     
  -3.5402811324886097E-013   2.5440407498696620E-003   0.0000000000000000     
  -9.2263241317780409E-013   6.4341528344751819E-003   0.0000000000000000     
  -1.7058130082070466E-012   1.1670336253816558E-002   0.0000000000000000     
  -2.7035696814961541E-012   1.8252591007893799E-002   0.0000000000000000     
   0.0000000000000000        0.0000000000000000        0.0000000000000000     
  -9.0026924970536965E-004   2.5697686493259277E-003   0.0000000000000000     
  -1.7852106090638824E-003   6.4850900597962667E-003   0.0000000000000000     
  -2.6548240780755379E-003   1.1745964231411018E-002   0.0000000000000000     
  -3.5091096567403360E-003   1.8352391164170180E-002   0.0000000000000000     
   0.0000000000000000        0.0000000000000000        0.0000000000000000     
  -1.7836471861677806E-003   2.6469523483223091E-003   0.0000000000000000     
  -3.5678486150792412E-003   6.6379017361599185E-003   0.0000000000000000     
  -5.3526042867343806E-003   1.1972848163512829E-002   0.0000000000000000     
  -7.1379142011331982E-003   1.8651791630381040E-002   0.0000000000000000     
   0.0000000000000000        0.0000000000000000        0.0000000000000000     
  -2.6501338097412622E-003   2.7755918468588053E-003   0.0000000000000000     
  -5.3479140189687073E-003   6.8925878635661348E-003   0.0000000000000000     
  -8.0933406276823393E-003   1.2350988050121990E-002   0.0000000000000000     
  -1.0886413635882155E-002   1.9150792406526368E-002   0.0000000000000000     
   0.0000000000000000        0.0000000000000000        0.0000000000000000     
  -3.4997291204258126E-003   2.9556871449354163E-003   0.0000000000000000     
  -7.1254068207322850E-003   7.2491484420149164E-003   0.0000000000000000     
  -1.0877033100919418E-002   1.2880383891238502E-002   0.0000000000000000     
  -1.4754607960987211E-002   1.9849393492606168E-002   0.0000000000000000     
  -2.7035696814961541E-012   1.8252591007893799E-002   0.0000000000000000     
  -3.8703754827798531E-012   2.5989684997201886E-002   0.0000000000000000     
  -5.1607033804777075E-012   3.4690386122235843E-002   0.0000000000000000     
  -6.5745515382222876E-012   4.4354694382995635E-002   0.0000000000000000     
  -8.1119208572566492E-012   5.4982609779481301E-002   0.0000000000000000     
  -3.5091096567403360E-003   1.8352391164170180E-002   0.0000000000000000     
  -4.3526495098465861E-003   2.6108812955654266E-002   0.0000000000000000     
  -5.1900258021825973E-003   3.4819671703443786E-002   0.0000000000000000     
  -6.0212385337483701E-003   4.4484967407538739E-002   0.0000000000000000     
  -6.8462877045439036E-003   5.5104700067939140E-002   0.0000000000000000     
  -7.1379142011331982E-003   1.8651791630381040E-002   0.0000000000000000     
  -8.9026419600988071E-003   2.6466196827559199E-002   0.0000000000000000     
  -1.0625651165454315E-002   3.5207528445841942E-002   0.0000000000000000     
  -1.2306941817199728E-002   4.4875786485229295E-002   0.0000000000000000     
  -1.3946513915335043E-002   5.5470970945721225E-002   0.0000000000000000     
  -1.0886413635882155E-002   1.9150792406526368E-002   0.0000000000000000     
  -1.3649977354627038E-002   2.7061836612916678E-002   0.0000000000000000     
  -1.6306876094975862E-002   3.5853956349430317E-002   0.0000000000000000     
  -1.8857109856928629E-002   4.5527151616067275E-002   0.0000000000000000     
  -2.1300678640485328E-002   5.6081422412827577E-002   0.0000000000000000     
  -1.4754607960987211E-002   1.9849393492606168E-002   0.0000000000000000     
  -1.8594655693431276E-002   2.7895732311726699E-002   0.0000000000000000     
  -2.2233700590747224E-002   3.6758955414208885E-002   0.0000000000000000     
  -2.5671742652935054E-002   4.6439062800052708E-002   0.0000000000000000     
  -2.8908781879994780E-002   5.6936054469258174E-002   0.0000000000000000     
  -8.1119208572566492E-012   5.4982609779481301E-002   0.0000000000000000     
  -8.5433231669651555E-012   6.6427197684186895E-002   0.0000000000000000     