 <VTKFile type="UnstructuredGrid"  version="0.1"   >
 <UnstructuredGrid>
 <Piece  NumberOfPoints="          1600 "  NumberOfCells="         1024 ">
 <Points>
 <DataArray  type="Float64" NumberOfComponents="3"  format="ascii" >
   0.0000000000000000        0.0000000000000000        0.0000000000000000     
   3.1250000000000000E-002   0.0000000000000000        0.0000000000000000     
   6.2500000000000000E-002   0.0000000000000000        0.0000000000000000     
   9.3750000000000000E-002   0.0000000000000000        0.0000000000000000     
  0.12500000000000000        0.0000000000000000        0.0000000000000000     
   0.0000000000000000        3.1250000000000000E-002   0.0000000000000000     
   3.1250000000000000E-002   3.1250000000000000E-002   0.0000000000000000     
   6.2500000000000000E-002   3.1250000000000000E-002   0.0000000000000000     
   9.3750000000000000E-002   3.1250000000000000E-002   0.0000000000000000     
  0.12500000000000000        3.1250000000000000E-002   0.0000000000000000     
   0.0000000000000000        6.2500000000000000E-002   0.0000000000000000     
   3.1250000000000000E-002   6.2500000000000000E-002   0.0000000000000000     
   6.2500000000000000E-002   6.2500000000000000E-002   0.0000000000000000     
   9.3750000000000000E-002   6.2500000000000000E-002   0.0000000000000000     
  0.12500000000000000        6.2500000000000000E-002   0.0000000000000000     
   0.0000000000000000        9.3750000000000000E-002   0.0000000000000000     
   3.1250000000000000E-002   9.3750000000000000E-002   0.0000000000000000     
   6.2500000000000000E-002   9.3750000000000000E-002   0.0000000000000000     
   9.3750000000000000E-002   9.3750000000000000E-002   0.0000000000000000     
  0.12500000000000000        9.3750000000000000E-002   0.0000000000000000     
   0.0000000000000000       0.12500000000000000        0.0000000000000000     
   3.1250000000000000E-002  0.12500000000000000        0.0000000000000000     
   6.2500000000000000E-002  0.12500000000000000        0.0000000000000000     
   9.3750000000000000E-002  0.12500000000000000        0.0000000000000000     
  0.12500000000000000       0.12500000000000000        0.0000000000000000     
  0.12500000000000000        0.0000000000000000        0.0000000000000000     
  0.15625000000000000        0.0000000000000000        0.0000000000000000     
  0.18750000000000000        0.0000000000000000        0.0000000000000000     
  0.21875000000000000        0.0000000000000000        0.0000000000000000     
  0.25000000000000000        0.0000000000000000        0.0000000000000000     
  0.12500000000000000        3.1250000000000000E-002   0.0000000000000000     
  0.15625000000000000        3.1250000000000000E-002   0.0000000000000000     
  0.18750000000000000        3.1250000000000000E-002   0.0000000000000000     
  0.21875000000000000        3.1250000000000000E-002   0.0000000000000000     
  0.25000000000000000        3.1250000000000000E-002   0.0000000000000000     
  0.12500000000000000        6.2500000000000000E-002   0.0000000000000000     
  0.15625000000000000        6.2500000000000000E-002   0.0000000000000000     
  0.18750000000000000        6.2500000000000000E-002   0.0000000000000000     
  0.21875000000000000        6.2500000000000000E-002   0.0000000000000000     
  0.25000000000000000        6.2500000000000000E-002   0.0000000000000000     
  0.12500000000000000        9.3750000000000000E-002   0.0000000000000000     
  0.15625000000000000        9.3750000000000000E-002   0.0000000000000000     
  0.18750000000000000        9.3750000000000000E-002   0.0000000000000000     
  0.21875000000000000        9.3750000000000000E-002   0.0000000000000000     
  0.25000000000000000        9.3750000000000000E-002   0.0000000000000000     
  0.12500000000000000       0.12500000000000000        0.0000000000000000     
  0.15625000000000000       0.12500000000000000        0.0000000000000000     
  0.18750000000000000       0.12500000000000000        0.0000000000000000     
  0.21875000000000000       0.12500000000000000        0.0000000000000000     
  0.25000000000000000       0.12500000000000000        0.0000000000000000     
  0.25000000000000000        0.0000000000000000        0.0000000000000000     
  0.28125000000000000        0.0000000000000000        0.0000000000000000     
  0.31250000000000000        0.0000000000000000        0.0000000000000000     
  0.34375000000000000        0.0000000000000000        0.0000000000000000     
  0.37500000000000000        0.0000000000000000        0.0000000000000000     
  0.25000000000000000        3.1250000000000000E-002   0.0000000000000000     
  0.28125000000000000        3.1250000000000000E-002   0.0000000000000000     
  0.31250000000000000        3.1250000000000000E-002   0.0000000000000000     
  0.34375000000000000        3.1250000000000000E-002   0.0000000000000000     
  0.37500000000000000        3.1250000000000000E-002   0.0000000000000000     
  0.25000000000000000        6.2500000000000000E-002   0.0000000000000000     
  0.28125000000000000        6.2500000000000000E-002   0.0000000000000000     
  0.31250000000000000        6.2500000000000000E-002   0.0000000000000000     
  0.34375000000000000        6.2500000000000000E-002   0.0000000000000000     
  0.37500000000000000        6.2500000000000000E-002   0.0000000000000000     
  0.25000000000000000        9.3750000000000000E-002   0.0000000000000000     
  0.28125000000000000        9.3750000000000000E-002   0.0000000000000000     
  0.31250000000000000        9.3750000000000000E-002   0.0000000000000000     
  0.34375000000000000        9.3750000000000000E-002   0.0000000000000000     
  0.37500000000000000        9.3750000000000000E-002   0.0000000000000000     
  0.25000000000000000       0.12500000000000000        0.0000000000000000     
  0.28125000000000000       0.12500000000000000        0.0000000000000000     
  0.31250000000000000       0.12500000000000000        0.0000000000000000     
  0.34375000000000000       0.12500000000000000        0.0000000000000000     
  0.37500000000000000       0.12500000000000000        0.0000000000000000     
  0.37500000000000000        0.0000000000000000        0.0000000000000000     
  0.40625000000000000        0.0000000000000000        0.0000000000000000     
  0.43750000000000000        0.0000000000000000        0.0000000000000000     
  0.46875000000000000        0.0000000000000000        0.0000000000000000     
  0.50000000000000000        0.0000000000000000        0.0000000000000000     
  0.37500000000000000        3.1250000000000000E-002   0.0000000000000000     
  0.40625000000000000        3.1250000000000000E-002   0.0000000000000000     
  0.43750000000000000        3.1250000000000000E-002   0.0000000000000000     
  0.46875000000000000        3.1250000000000000E-002   0.0000000000000000     
  0.50000000000000000        3.1250000000000000E-002   0.0000000000000000     
  0.37500000000000000        6.2500000000000000E-002   0.0000000000000000     
  0.40625000000000000        6.2500000000000000E-002   0.0000000000000000     
  0.43750000000000000        6.2500000000000000E-002   0.0000000000000000     
  0.46875000000000000        6.2500000000000000E-002   0.0000000000000000     
  0.50000000000000000        6.2500000000000000E-002   0.0000000000000000     
  0.37500000000000000        9.3750000000000000E-002   0.0000000000000000     
  0.40625000000000000        9.3750000000000000E-002   0.0000000000000000     
  0.43750000000000000        9.3750000000000000E-002   0.0000000000000000     
  0.46875000000000000        9.3750000000000000E-002   0.0000000000000000     
  0.50000000000000000        9.3750000000000000E-002   0.0000000000000000     
  0.37500000000000000       0.12500000000000000        0.0000000000000000     
  0.40625000000000000       0.12500000000000000        0.0000000000000000     
  0.43750000000000000       0.12500000000000000        0.0000000000000000     
  0.46875000000000000       0.12500000000000000        0.0000000000000000     
  0.50000000000000000       0.12500000000000000        0.0000000000000000     
  0.50000000000000000        0.0000000000000000        0.0000000000000000     
  0.53125000000000000        0.0000000000000000        0.0000000000000000     
  0.56250000000000000        0.0000000000000000        0.0000000000000000     
  0.59375000000000000        0.0000000000000000        0.0000000000000000     
  0.62500000000000000        0.0000000000000000        0.0000000000000000     
  0.50000000000000000        3.1250000000000000E-002   0.0000000000000000     
  0.53125000000000000        3.1250000000000000E-002   0.0000000000000000     
  0.56250000000000000        3.1250000000000000E-002   0.0000000000000000     
  0.59375000000000000        3.1250000000000000E-002   0.0000000000000000     
  0.62500000000000000        3.1250000000000000E-002   0.0000000000000000     
  0.50000000000000000        6.2500000000000000E-002   0.0000000000000000     
  0.53125000000000000        6.2500000000000000E-002   0.0000000000000000     
  0.56250000000000000        6.2500000000000000E-002   0.0000000000000000     
  0.59375000000000000        6.2500000000000000E-002   0.0000000000000000     
  0.62500000000000000        6.2500000000000000E-002   0.0000000000000000     
  0.50000000000000000        9.3750000000000000E-002   0.0000000000000000     
  0.53125000000000000        9.3750000000000000E-002   0.0000000000000000     
  0.56250000000000000        9.3750000000000000E-002   0.0000000000000000     
  0.59375000000000000        9.3750000000000000E-002   0.0000000000000000     
  0.62500000000000000        9.3750000000000000E-002   0.0000000000000000     
  0.50000000000000000       0.12500000000000000        0.0000000000000000     
  0.53125000000000000       0.12500000000000000        0.0000000000000000     
  0.56250000000000000       0.12500000000000000        0.0000000000000000     
[...]
 <PointData>
 <DataArray  type="Float64" Name="disp" NumberOfComponents="3" format="ascii">
   0.0000000000000000        0.0000000000000000        0.0000000000000000     
   6.0959490922908336E-003   3.7905409202352884E-003   0.0000000000000000     
   1.1665977679951842E-002   7.3240019276158228E-003   0.0000000000000000     
   1.6710085762983024E-002   1.0600383022141602E-002   0.0000000000000000     
   2.1228273341384385E-002   1.3619684203812630E-002   0.0000000000000000     
   0.0000000000000000        0.0000000000000000        0.0000000000000000     
   4.8911366177432324E-003   3.0222184901223951E-003   0.0000000000000000     
   9.5736079074318359E-003   6.0606543908650352E-003   0.0000000000000000     
   1.4047413869065807E-002   9.1153077022279195E-003   0.0000000000000000     
   1.8312554502645153E-002   1.2186178424211049E-002   0.0000000000000000     
   0.0000000000000000        0.0000000000000000        0.0000000000000000     
   3.9535525885003933E-003   2.4251652487156652E-003   0.0000000000000000     
   7.9105972248901674E-003   5.0629879661828166E-003   0.0000000000000000     
   1.1871133909169322E-002   7.9134681524014525E-003   0.0000000000000000     
   1.5835162641337858E-002   1.0976605807371576E-002   0.0000000000000000     
   0.0000000000000000        0.0000000000000000        0.0000000000000000     
   3.2831970045623183E-003   1.9993811960150988E-003   0.0000000000000000     
   6.6769456323268420E-003   4.3310026535691671E-003   0.0000000000000000     
   1.0181245883293570E-002   6.9948643726622057E-003   0.0000000000000000     
   1.3796097757462503E-002   9.9909663532942155E-003   0.0000000000000000     
   0.0000000000000000        0.0000000000000000        0.0000000000000000     
   2.8800698659290072E-003   1.7448663320206957E-003   0.0000000000000000     
   5.8726531297418573E-003   3.8646984530240876E-003   0.0000000000000000     
   8.9777497914385503E-003   6.3594963630101749E-003   0.0000000000000000     
   1.2195359851019086E-002   9.2292600619789614E-003   0.0000000000000000     
   2.1228273341384385E-002   1.3619684203812630E-002   0.0000000000000000     
   2.5433368083044413E-002   1.6612597570007544E-002   0.0000000000000000     
   2.9538197655851604E-002   1.9809815218105004E-002   0.0000000000000000     
   3.3542762059805956E-002   2.3211337148104996E-002   0.0000000000000000     
   3.7447061294907484E-002   2.6817163360007529E-002   0.0000000000000000     
   1.8312554502645153E-002   1.2186178424211049E-002   0.0000000000000000     
   2.2407200307933431E-002   1.5341657703353100E-002   0.0000000000000000     
   2.6369521784694223E-002   1.8650136686192753E-002   0.0000000000000000     
   3.0199518932927511E-002   2.2111615372730008E-002   0.0000000000000000     
   3.3897191752633303E-002   2.5726093762964863E-002   0.0000000000000000     
   1.5835162641337858E-002   1.0976605807371576E-002   0.0000000000000000     
   1.9730871820341674E-002   1.4211227116557373E-002   0.0000000000000000     
   2.3486449845126659E-002   1.7576158265423029E-002   0.0000000000000000     
   2.7101896715692818E-002   2.1071399253968556E-002   0.0000000000000000     
   3.0577212432040153E-002   2.4696950082193941E-002   0.0000000000000000     
   1.3796097757462503E-002   9.9909663532942155E-003   0.0000000000000000     
   1.7404382620269127E-002   1.3221305809620368E-002   0.0000000000000000     
   2.0888981837148914E-002   1.6587879955795842E-002   0.0000000000000000     
   2.4249895408101879E-002   2.0090688791820643E-002   0.0000000000000000     
   2.7487123333128020E-002   2.3729732317694752E-002   0.0000000000000000     
   1.2195359851019086E-002   9.2292600619789614E-003   0.0000000000000000     
   1.5427732707715794E-002   1.2371893782542082E-002   0.0000000000000000     
   1.8577117760761000E-002   1.5685301757311178E-002   0.0000000000000000     
   2.1643515010154702E-002   1.9169483986286255E-002   0.0000000000000000     
   2.4626924455896905E-002   2.2824440469467310E-002   0.0000000000000000     
   3.7447061294907484E-002   2.6817163360007529E-002   0.0000000000000000     
   4.1255521155989162E-002   3.0622473307532219E-002   0.0000000000000000     
   4.4972567437883977E-002   3.4622446444398700E-002   0.0000000000000000     
   4.8598200140591956E-002   3.8817082770606963E-002   0.0000000000000000     
   5.2132419264113064E-002   4.3206382286157023E-002   0.0000000000000000     
   3.3897191752633303E-002   2.5726093762964863E-002   0.0000000000000000     
   3.7485795269354458E-002   2.9522343311632324E-002   0.0000000000000000     
   4.0988584508633789E-002   3.3529135473467385E-002   0.0000000000000000     
   4.4405559470471340E-002   3.7746470248470047E-002   0.0000000000000000     
   4.7736720154867074E-002   4.2174347636640318E-002   0.0000000000000000     
   3.0577212432040153E-002   2.4696950082193941E-002   0.0000000000000000     
   3.3941907801627653E-002   2.8497380895645266E-002   0.0000000000000000     
   3.7225493631914332E-002   3.2517261839868625E-002   0.0000000000000000     
   4.0427969922900174E-002   3.6756592914864016E-002   0.0000000000000000     
   4.3549336674585187E-002   4.1215374120631421E-002   0.0000000000000000     
   2.7487123333128020E-002   2.3729732317694752E-002   0.0000000000000000     
   3.0623858752808767E-002   2.7547586059571059E-002   0.0000000000000000     
   3.3683294807725583E-002   3.1586825543602426E-002   0.0000000000000000     
   3.6665431497878466E-002   3.5847450769788861E-002   0.0000000000000000     
   3.9570268823267411E-002   4.0329461738130339E-002   0.0000000000000000     
   2.4626924455896905E-002   2.2824440469467310E-002   0.0000000000000000     
   2.7531648122897798E-002   2.6672958803409693E-002   0.0000000000000000     
   3.0361988036067565E-002   3.0737826584668785E-002   0.0000000000000000     
   3.3117944195406215E-002   3.5019043813244576E-002   0.0000000000000000     
   3.5799516600913739E-002   3.9516610489137058E-002   0.0000000000000000     
   5.2132419264113064E-002   4.3206382286157023E-002   0.0000000000000000     
   5.5572243182565428E-002   4.7795050060232845E-002   0.0000000000000000     
   5.8914690270067162E-002   5.2587791162018394E-002   0.0000000000000000     
   6.2159760526618243E-002   5.7584605591513696E-002   0.0000000000000000     
   6.5307453952218680E-002   6.2785493348718718E-002   0.0000000000000000     
   4.7736720154867074E-002   4.2174347636640318E-002   0.0000000000000000     
   5.0977468213179271E-002   4.6806249718051744E-002   0.0000000000000000     
   5.4123205296766182E-002   5.1635658572777861E-002   0.0000000000000000     
   5.7173931405627813E-002   5.6662574200818674E-002   0.0000000000000000     
   6.0129646539764152E-002   6.1886996602174185E-002   0.0000000000000000     
   4.3549336674585187E-002   4.1215374120631421E-002   0.0000000000000000     
   4.6584849163728292E-002   4.5880964796848757E-002   0.0000000000000000     
   4.9529762667088396E-002   5.0740724283193900E-002   0.0000000000000000     
   5.2384077184665513E-002   5.5794652579666863E-002   0.0000000000000000     
   5.5147792716459622E-002   6.1042749686267633E-002   0.0000000000000000     
   3.9570268823267411E-002   4.0329461738130339E-002   0.0000000000000000     
   4.2394386034212493E-002   4.5019195296623890E-002   0.0000000000000000     
   4.5134362381033799E-002   4.9902988293266538E-002   0.0000000000000000     
   4.7790197863731336E-002   5.4980840728058256E-002   0.0000000000000000     
   5.0361892482305104E-002   6.0252752600999056E-002   0.0000000000000000     
   3.5799516600913739E-002   3.9516610489137058E-002   0.0000000000000000     
   3.8406078824631880E-002   4.4220941217377144E-002   0.0000000000000000     
   4.0937004438602410E-002   4.9122450602995735E-002   0.0000000000000000     
   4.3392293442825310E-002   5.4221138645992852E-002   0.0000000000000000     
   4.5771945837300577E-002   5.9517005346368460E-002   0.0000000000000000     
   6.5307453952218680E-002   6.2785493348718718E-002   0.0000000000000000     
   6.8362590136126528E-002   6.8177043607631924E-002   0.0000000000000000     
   7.1329988667599861E-002   7.3745845542251720E-002   0.0000000000000000     
   7.4209649546638681E-002   7.9491899152578122E-002   0.0000000000000000     
   7.7001572773242974E-002   8.5415204438611114E-002   0.0000000000000000     
   6.0129646539764152E-002   6.1886996602174185E-002   0.0000000000000000     
   6.2996308783711014E-002   6.7300243225425785E-002   0.0000000000000000     
   6.5779876222004194E-002   7.2893631519154845E-002   0.0000000000000000     
   6.8480348854643672E-002   7.8667161483361392E-002   0.0000000000000000     
   7.1097726681629475E-002   8.4620833118045385E-002   0.0000000000000000     
   5.5147792716459622E-002   6.1042749686267633E-002   0.0000000000000000     
   5.7826947167181807E-002   6.6478829077217166E-002   0.0000000000000000     
   6.0427578441543069E-002   7.2096704226736433E-002   0.0000000000000000     
   6.2949686539543429E-002   7.7896375134825405E-002   0.0000000000000000     
   6.5393271461182900E-002   8.3877841801484124E-002   0.0000000000000000     
   5.0361892482305104E-002   6.0252752600999056E-002   0.0000000000000000     
   5.2854505286538893E-002   6.5712801163006096E-002   0.0000000000000000     
   5.5273095326216506E-002   7.1355063664996457E-002   0.0000000000000000     
   5.7617662601337966E-002   7.7179540106970215E-002   0.0000000000000000     
   5.9888207111903236E-002   8.3186230488927301E-002   0.0000000000000000     
   4.5771945837300577E-002   5.9517005346368460E-002   0.0000000000000000     
   4.8078983141782293E-002   6.5002159482792518E-002   0.0000000000000000     
   5.0316426876024521E-002   7.0668709833934959E-002   0.0000000000000000     
   5.2484277040027248E-002   7.6516656399795768E-002   0.0000000000000000     
   5.4582533633790488E-002   8.2545999180374974E-002   0.0000000000000000     
   7.7001572773242974E-002   8.5415204438611114E-002   0.0000000000000000     
   7.9694696986056510E-002   9.1506897182793867E-002   0.0000000000000000     
   8.2277960823723045E-002   9.7758113167569549E-002   0.0000000000000000     
   8.4751364286242567E-002  0.10416885239293812        0.0000000000000000     
   8.7114907373615075E-002  0.11073911485889965        0.0000000000000000     
   7.1097726681629475E-002   8.4620833118045385E-002   0.0000000000000000     
   7.3622266692819044E-002   9.0743516841908234E-002   0.0000000000000000     
   7.6044225878069818E-002   9.7024083073651332E-002   0.0000000000000000     
   7.8363604237381798E-002  0.10346253181327461        0.0000000000000000     
   8.0580401770754997E-002  0.11005886306077817        0.0000000000000000     
   6.5393271461182900E-002   8.3877841801484124E-002   0.0000000000000000     
   6.7749818888053107E-002   9.0028649207040415E-002   0.0000000000000000     
   7.0010814501745733E-002   9.6336342331822186E-002   0.0000000000000000     
   7.2176258302260737E-002  0.10280092117582941        0.0000000000000000     
   7.4246150289598148E-002  0.10942238573906211        0.0000000000000000     
   5.9888207111903236E-002   8.3186230488927301E-002   0.0000000000000000     
   6.2077353571758705E-002   8.9362294278190396E-002   0.0000000000000000     
   6.4177726694750761E-002   9.5694890942082153E-002   0.0000000000000000     
   6.6189326480879357E-002  0.10218402048060253        0.0000000000000000     
   6.8112152930144526E-002  0.10882968289375154        0.0000000000000000     
   5.4582533633790488E-002   8.2545999180374974E-002   0.0000000000000000     
   5.6604870743935838E-002   8.8744452055358219E-002   0.0000000000000000     
   5.8544962457084890E-002   9.5099728904431219E-002   0.0000000000000000     
   6.0402808773237650E-002  0.10161182972759393        0.0000000000000000     
   6.2178409692394118E-002  0.10828075452484641        0.0000000000000000     
   8.7114907373615075E-002  0.11073911485889965        0.0000000000000000     
   8.9387289064055742E-002  0.11745539498295629        0.0000000000000000     
   9.1587208335779741E-002  0.12430418718261035        0.0000000000000000     
   9.3714665188787044E-002  0.13128549145786184        0.0000000000000000     
   9.5769659623077652E-002  0.13839930780871068        0.0000000000000000     
   8.0580401770754997E-002  0.11005886306077817        0.0000000000000000     
   8.2711022551889848E-002  0.11680094326414560        0.0000000000000000     
   8.4771870654486797E-002  0.12367663887136064        0.0000000000000000     
   8.6762946078545858E-002  0.13068594988242327        0.0000000000000000     
   8.8684248824067016E-002  0.13782887629733354        0.0000000000000000     
   7.4246150289598148E-002  0.10942238573906211        0.0000000000000000     
   7.6235069676154829E-002  0.11618945248385222        0.0000000000000000     
   7.8157595674327701E-002  0.12309083787253171        0.0000000000000000     
   8.0013728284116722E-002  0.13012654190510059        0.0000000000000000     
   8.1803467505521921E-002  0.13729656458155878        0.0000000000000000     
   6.8112152930144526E-002  0.10882968289375154        0.0000000000000000     
   6.9959430436850725E-002  0.11562092264207623        0.0000000000000000     
   7.1744383395302438E-002  0.12254678418612361        0.0000000000000000     
   7.3467011805499652E-002  0.12960726752589363        0.0000000000000000     
   7.5127315667442393E-002  0.13680237266138642        0.0000000000000000     
   6.2178409692394118E-002  0.10828075452484641        0.0000000000000000     
   6.3884104833977495E-002  0.11509535373881753        0.0000000000000000     
   6.5532233817411009E-002  0.12204447781213626        0.0000000000000000     
   6.7122796642694646E-002  0.12912812674480256        0.0000000000000000     
   6.8655793309828406E-002  0.13634630053681648        0.0000000000000000     
   9.5769659623077652E-002  0.13839930780871068        0.0000000000000000     
   9.7720368771296695E-002  0.14563433221416122        0.0000000000000000     
   9.9534969766089290E-002  0.15297926065321774        0.0000000000000000     
  0.10121346260745541       0.16043409312588028        0.0000000000000000     
  0.10275584729539508       0.16799882963214877        0.0000000000000000     
   8.8684248824067016E-002  0.13782887629733354        0.0000000000000000     
   9.0509439830169305E-002  0.14509279729735464        0.0000000000000000     
   9.2212180035971716E-002  0.15246509206374981        0.0000000000000000     
   9.3792469441474291E-002  0.15994576059651905        0.0000000000000000     
   9.5250308046677029E-002  0.16753480289566239        0.0000000000000000     
   8.1803467505521921E-002  0.13729656458155878        0.0000000000000000     
   8.3504055416883452E-002  0.14458751765489880        0.0000000000000000     
   8.5092734096541556E-002  0.15198601287811303        0.0000000000000000     
   8.6569503544496135E-002  0.15949205025120147        0.0000000000000000     
   8.7934363760747258E-002  0.16710562977416410        0.0000000000000000     
   7.5127315667442393E-002  0.13680237266138642        0.0000000000000000     
   7.6704215531439218E-002  0.14411849328679371        0.0000000000000000     
   7.8176631947798725E-002  0.15154202309630743        0.0000000000000000     
   7.9544564916520927E-002  0.15907296208992744        0.0000000000000000     
   8.0808014437605810E-002  0.16671131026765390        0.0000000000000000     
   6.8655793309828406E-002  0.13634630053681648        0.0000000000000000     
   7.0109920173836549E-002  0.14368572419303946        0.0000000000000000     
   7.1463873589743321E-002  0.15113312271833299        0.0000000000000000     
   7.2717653557548681E-002  0.15868849611269711        0.0000000000000000     
   7.3871260077252671E-002  0.16635184437613182        0.0000000000000000     
   0.0000000000000000        0.0000000000000000        0.0000000000000000     
   2.8800698659290072E-003   1.7448663320206957E-003   0.0000000000000000     
   5.8726531297418573E-003   3.8646984530240876E-003   0.0000000000000000     
   8.9777497914385503E-003   6.3594963630101749E-003   0.0000000000000000     
   1.2195359851019086E-002   9.2292600619789614E-003   0.0000000000000000     
   0.0000000000000000        0.0000000000000000        0.0000000000000000     
   2.6103269341000899E-003   1.5889545606322228E-003   0.0000000000000000     
   5.2897386036071968E-003   3.5567552823437191E-003   0.0000000000000000     
   8.0382350085213237E-003   5.9034021651344880E-003   0.0000000000000000     
   1.0855816148842465E-002   8.6288952090045300E-003   0.0000000000000000     
   0.0000000000000000        0.0000000000000000        0.0000000000000000     
   2.3401239705751965E-003   1.4589797857494477E-003   0.0000000000000000     
   4.7202209403948443E-003   3.2998530593242024E-003   0.0000000000000000     
   7.1402909094589436E-003   5.5226198207242640E-003   0.0000000000000000     
   9.6003338777674932E-003   8.1272800699496318E-003   0.0000000000000000     
   0.0000000000000000        0.0000000000000000        0.0000000000000000     
   2.0694609753543268E-003   1.3549420073723699E-003   0.0000000000000000     
   4.1641001401047980E-003   3.0939917839655378E-003   0.0000000000000000     
   6.2839174942514132E-003   5.2171493297795048E-003   0.0000000000000000     
   8.4289130377941720E-003   7.7244146448142694E-003   0.0000000000000000     
   0.0000000000000000        0.0000000000000000        0.0000000000000000     
   1.7983379484374814E-003   1.2768412255009895E-003   0.0000000000000000     
   3.6213762027370588E-003   2.9391714562677263E-003   0.0000000000000000     
   5.4691147628987326E-003   4.9869906923002104E-003   0.0000000000000000     
   7.3415536289225024E-003   7.4202989335984421E-003   0.0000000000000000     
   1.2195359851019086E-002   9.2292600619789614E-003   0.0000000000000000     
   1.5427732707715794E-002   1.2371893782542082E-002   0.0000000000000000     
   1.8577117760761000E-002   1.5685301757311178E-002   0.0000000000000000     
   2.1643515010154702E-002   1.9169483986286255E-002   0.0000000000000000     
   2.4626924455896905E-002   2.2824440469467310E-002   0.0000000000000000     
   1.0855816148842465E-002   8.6288952090045300E-003   0.0000000000000000     
   1.3689139881279329E-002   1.1650948743503685E-002   0.0000000000000000     
   1.6484864062540613E-002   1.4887277098181795E-002   0.0000000000000000     
   1.9242988692626316E-002   1.8337880273038860E-002   0.0000000000000000     
   2.1963513771536446E-002   2.2002758268074879E-002   0.0000000000000000     
   9.6003338777674932E-003   8.1272800699496318E-003   0.0000000000000000     
   1.2076821939557374E-002   1.1046428400686344E-002   0.0000000000000000     
   1.4546227189065460E-002   1.4212659406620433E-002   0.0000000000000000     
   1.7008549626291756E-002   1.7625973087751903E-002   0.0000000000000000     
   1.9463789251236256E-002   2.1286369444080747E-002   0.0000000000000000     
   8.4289130377941720E-003   7.7244146448142694E-003   0.0000000000000000     
   1.0590778882549935E-002   1.0558332754090058E-002   0.0000000000000000     
   1.2761207140335549E-002   1.3661448682627097E-002   0.0000000000000000     
   1.4940197811151020E-002   1.7033762430425380E-002   0.0000000000000000     
   1.7127750894996348E-002   2.0675273997484915E-002   0.0000000000000000     
   7.3415536289225024E-003   7.4202989335984421E-003   0.0000000000000000     
   9.2310107102570038E-003   1.0186661803714829E-002   0.0000000000000000     
   1.1129803916350871E-002   1.3233644926201783E-002   0.0000000000000000     
   1.3037933247204108E-002   1.6561248301059296E-002   0.0000000000000000     
   1.4955398702816709E-002   2.0169471928287379E-002   0.0000000000000000     
   2.4626924455896905E-002   2.2824440469467310E-002   0.0000000000000000     
   2.7531648122897798E-002   2.6672958803409693E-002   0.0000000000000000     