 <VTKFile type="UnstructuredGrid"  version="0.1"   >
 <UnstructuredGrid>
 <Piece  NumberOfPoints="          1600 "  NumberOfCells="         1024 ">
 <Points>
 <DataArray  type="Float64" NumberOfComponents="3"  format="ascii" >
   0.0000000000000000        0.0000000000000000        0.0000000000000000     
   3.1250000000000000E-002   0.0000000000000000        0.0000000000000000     
   6.2500000000000000E-002   0.0000000000000000        0.0000000000000000     
   9.3750000000000000E-002   0.0000000000000000        0.0000000000000000     
  0.12500000000000000        0.0000000000000000        0.0000000000000000     
   0.0000000000000000        3.1250000000000000E-002   0.0000000000000000     
   3.1250000000000000E-002   3.1250000000000000E-002   0.0000000000000000     
   6.2500000000000000E-002   3.1250000000000000E-002   0.0000000000000000     
   9.3750000000000000E-002   3.1250000000000000E-002   0.0000000000000000     
  0.12500000000000000        3.1250000000000000E-002   0.0000000000000000     
   0.0000000000000000        6.2500000000000000E-002   0.0000000000000000     
   3.1250000000000000E-002   6.2500000000000000E-002   0.0000000000000000     
   6.2500000000000000E-002   6.2500000000000000E-002   0.0000000000000000     
   9.3750000000000000E-002   6.2500000000000000E-002   0.0000000000000000     
  0.12500000000000000        6.2500000000000000E-002   0.0000000000000000     
   0.0000000000000000        9.3750000000000000E-002   0.0000000000000000     
   3.1250000000000000E-002   9.3750000000000000E-002   0.0000000000000000     
   6.2500000000000000E-002   9.3750000000000000E-002   0.0000000000000000     
   9.3750000000000000E-002   9.3750000000000000E-002   0.0000000000000000     
  0.12500000000000000        9.3750000000000000E-002   0.0000000000000000     
   0.0000000000000000       0.12500000000000000        0.0000000000000000     
   3.1250000000000000E-002  0.12500000000000000        0.0000000000000000     
   6.2500000000000000E-002  0.12500000000000000        0.0000000000000000     
   9.3750000000000000E-002  0.12500000000000000        0.0000000000000000     
  0.12500000000000000       0.12500000000000000        0.0000000000000000     
  0.12500000000000000        0.0000000000000000        0.0000000000000000     
  0.15625000000000000        0.0000000000000000        0.0000000000000000     
  0.18750000000000000        0.0000000000000000        0.0000000000000000     
  0.21875000000000000        0.0000000000000000        0.0000000000000000     
  0.25000000000000000        0.0000000000000000        0.0000000000000000     
  0.12500000000000000        3.1250000000000000E-002   0.0000000000000000     
  0.15625000000000000        3.1250000000000000E-002   0.0000000000000000     
  0.18750000000000000        3.1250000000000000E-002   0.0000000000000000     
  0.21875000000000000        3.1250000000000000E-002   0.0000000000000000     
  0.25000000000000000        3.1250000000000000E-002   0.0000000000000000     
  0.12500000000000000        6.2500000000000000E-002   0.0000000000000000     
  0.15625000000000000        6.2500000000000000E-002   0.0000000000000000     
  0.18750000000000000        6.2500000000000000E-002   0.0000000000000000     
  0.21875000000000000        6.2500000000000000E-002   0.0000000000000000     
  0.25000000000000000        6.2500000000000000E-002   0.0000000000000000     
  0.12500000000000000        9.3750000000000000E-002   0.0000000000000000     
  0.15625000000000000        9.3750000000000000E-002   0.0000000000000000     
  0.18750000000000000        9.3750000000000000E-002   0.0000000000000000     
  0.21875000000000000        9.3750000000000000E-002   0.0000000000000000     
  0.25000000000000000        9.3750000000000000E-002   0.0000000000000000     
  0.12500000000000000       0.12500000000000000        0.0000000000000000     
  0.15625000000000000       0.12500000000000000        0.0000000000000000     
  0.18750000000000000       0.12500000000000000        0.0000000000000000     
  0.21875000000000000       0.12500000000000000        0.0000000000000000     
  0.25000000000000000       0.12500000000000000        0.0000000000000000     
  0.25000000000000000        0.0000000000000000        0.0000000000000000     
  0.28125000000000000        0.0000000000000000        0.0000000000000000     
  0.31250000000000000        0.0000000000000000        0.0000000000000000     
  0.34375000000000000        0.0000000000000000        0.0000000000000000     
  0.37500000000000000        0.0000000000000000        0.0000000000000000     
  0.25000000000000000        3.1250000000000000E-002   0.0000000000000000     
  0.28125000000000000        3.1250000000000000E-002   0.0000000000000000     
  0.31250000000000000        3.1250000000000000E-002   0.0000000000000000     
  0.34375000000000000        3.1250000000000000E-002   0.0000000000000000     
  0.37500000000000000        3.1250000000000000E-002   0.0000000000000000     
  0.25000000000000000        6.2500000000000000E-002   0.0000000000000000     
  0.28125000000000000        6.2500000000000000E-002   0.0000000000000000     
  0.31250000000000000        6.2500000000000000E-002   0.0000000000000000     
  0.34375000000000000        6.2500000000000000E-002   0.0000000000000000     
  0.37500000000000000        6.2500000000000000E-002   0.0000000000000000     
  0.25000000000000000        9.3750000000000000E-002   0.0000000000000000     
  0.28125000000000000        9.3750000000000000E-002   0.0000000000000000     
  0.31250000000000000        9.3750000000000000E-002   0.0000000000000000     
  0.34375000000000000        9.3750000000000000E-002   0.0000000000000000     
  0.37500000000000000        9.3750000000000000E-002   0.0000000000000000     
  0.25000000000000000       0.12500000000000000        0.0000000000000000     
  0.28125000000000000       0.12500000000000000        0.0000000000000000     
  0.31250000000000000       0.12500000000000000        0.0000000000000000     
  0.34375000000000000       0.12500000000000000        0.0000000000000000     
  0.37500000000000000       0.12500000000000000        0.0000000000000000     
  0.37500000000000000        0.0000000000000000        0.0000000000000000     
  0.40625000000000000        0.0000000000000000        0.0000000000000000     
  0.43750000000000000        0.0000000000000000        0.0000000000000000     
  0.46875000000000000        0.0000000000000000        0.0000000000000000     
  0.50000000000000000        0.0000000000000000        0.0000000000000000     
  0.37500000000000000        3.1250000000000000E-002   0.0000000000000000     
  0.40625000000000000        3.1250000000000000E-002   0.0000000000000000     
  0.43750000000000000        3.1250000000000000E-002   0.0000000000000000     
  0.46875000000000000        3.1250000000000000E-002   0.0000000000000000     
  0.50000000000000000        3.1250000000000000E-002   0.0000000000000000     
  0.37500000000000000        6.2500000000000000E-002   0.0000000000000000     
  0.40625000000000000        6.2500000000000000E-002   0.0000000000000000     
  0.43750000000000000        6.2500000000000000E-002   0.0000000000000000     
  0.46875000000000000        6.2500000000000000E-002   0.0000000000000000     
  0.50000000000000000        6.2500000000000000E-002   0.0000000000000000     
  0.37500000000000000        9.3750000000000000E-002   0.0000000000000000     
  0.40625000000000000        9.3750000000000000E-002   0.0000000000000000     
  0.43750000000000000        9.3750000000000000E-002   0.0000000000000000     
  0.46875000000000000        9.3750000000000000E-002   0.0000000000000000     
  0.50000000000000000        9.3750000000000000E-002   0.0000000000000000     
  0.37500000000000000       0.12500000000000000        0.0000000000000000     
  0.40625000000000000       0.12500000000000000        0.0000000000000000     
  0.43750000000000000       0.12500000000000000        0.0000000000000000     
  0.46875000000000000       0.12500000000000000        0.0000000000000000     
  0.50000000000000000       0.12500000000000000        0.0000000000000000     
  0.50000000000000000        0.0000000000000000        0.0000000000000000     
  0.53125000000000000        0.0000000000000000        0.0000000000000000     
  0.56250000000000000        0.0000000000000000        0.0000000000000000     
  0.59375000000000000        0.0000000000000000        0.0000000000000000     
  0.62500000000000000        0.0000000000000000        0.0000000000000000     
  0.50000000000000000        3.1250000000000000E-002   0.0000000000000000     
  0.53125000000000000        3.1250000000000000E-002   0.0000000000000000     
  0.56250000000000000        3.1250000000000000E-002   0.0000000000000000     
  0.59375000000000000        3.1250000000000000E-002   0.0000000000000000     
  0.62500000000000000        3.1250000000000000E-002   0.0000000000000000     
  0.50000000000000000        6.2500000000000000E-002   0.0000000000000000     
  0.53125000000000000        6.2500000000000000E-002   0.0000000000000000     
  0.56250000000000000        6.2500000000000000E-002   0.0000000000000000     
  0.59375000000000000        6.2500000000000000E-002   0.0000000000000000     
  0.62500000000000000        6.2500000000000000E-002   0.0000000000000000     
  0.50000000000000000        9.3750000000000000E-002   0.0000000000000000     
  0.53125000000000000        9.3750000000000000E-002   0.0000000000000000     
  0.56250000000000000        9.3750000000000000E-002   0.0000000000000000     
  0.59375000000000000        9.3750000000000000E-002   0.0000000000000000     
  0.62500000000000000        9.3750000000000000E-002   0.0000000000000000     
  0.50000000000000000       0.12500000000000000        0.0000000000000000     
  0.53125000000000000       0.12500000000000000        0.0000000000000000     
  0.56250000000000000       0.12500000000000000        0.0000000000000000     
[...]
 <PointData>
 <DataArray  type="Float64" Name="disp" NumberOfComponents="3" format="ascii">
   0.0000000000000000        0.0000000000000000        0.0000000000000000     
   3.5093844550113328E-003   2.6048552750642315E-003   0.0000000000000000     
   6.9685422990274420E-003   5.3529019826663738E-003   0.0000000000000000     
   1.0377473532048327E-002   8.2441401228064270E-003   0.0000000000000000     
   1.3736178154073991E-002   1.1278569695484391E-002   0.0000000000000000     
   0.0000000000000000        0.0000000000000000        0.0000000000000000     
   3.3124541447401004E-003   2.5104033940717609E-003   0.0000000000000000     
   6.1710545861678925E-003   5.1073969428390882E-003   0.0000000000000000     
   8.5758013242833789E-003   7.7909806463019801E-003   0.0000000000000000     
   1.0526694359086555E-002   1.0561154504460440E-002   0.0000000000000000     
   0.0000000000000000        0.0000000000000000        0.0000000000000000     
   2.9627649910197698E-003   2.3358119172748660E-003   0.0000000000000000     
   5.3415089528747002E-003   4.7914391684533908E-003   0.0000000000000000     
   7.1362318855647915E-003   7.3668817535355756E-003   0.0000000000000000     
   8.3469337890900424E-003   1.0062139672521418E-002   0.0000000000000000     
   0.0000000000000000        0.0000000000000000        0.0000000000000000     
   2.4603169938503403E-003   2.0810808446735476E-003   0.0000000000000000     
   4.4799053991478625E-003   4.4050286595092849E-003   0.0000000000000000     
   6.0587652158925658E-003   6.9718434445072116E-003   0.0000000000000000     
   7.1968964440844493E-003   9.7815251996673271E-003   0.0000000000000000     
   0.0000000000000000        0.0000000000000000        0.0000000000000000     
   1.8051101532318133E-003   1.7462101762678055E-003   0.0000000000000000     
   3.5862439249873808E-003   3.9481654160067690E-003   0.0000000000000000     
   5.3434013152667027E-003   6.6058657192168907E-003   0.0000000000000000     
   7.0765823240697776E-003   9.7193110858981684E-003   0.0000000000000000     
   1.3736178154073991E-002   1.1278569695484391E-002   0.0000000000000000     
   1.6546445353210509E-002   1.4266228554660906E-002   0.0000000000000000     
   1.8310064317563959E-002   1.7017154554296612E-002   0.0000000000000000     
   1.9027035047134343E-002   1.9531347694391511E-002   0.0000000000000000     
   1.8697357541921658E-002   2.1808807974945599E-002   0.0000000000000000     
   1.0526694359086555E-002   1.0561154504460440E-002   0.0000000000000000     
   1.2399071408996397E-002   1.3307445616072389E-002   0.0000000000000000     
   1.4568270192431881E-002   1.5919381079895746E-002   0.0000000000000000     
   1.7034290709392996E-002   1.8396960895930518E-002   0.0000000000000000     
   1.9797132959879761E-002   2.0740185064176703E-002   0.0000000000000000     
   8.3469337890900424E-003   1.0062139672521418E-002   0.0000000000000000     
   9.7345722546218049E-003   1.2726655276872063E-002   0.0000000000000000     
   1.2060104873331428E-002   1.5209870918048651E-002   0.0000000000000000     
   1.5323531645218918E-002   1.7511786596051186E-002   0.0000000000000000     
   1.9524852570284267E-002   1.9632402310879662E-002   0.0000000000000000     
   7.1968964440844493E-003   9.7815251996673271E-003   0.0000000000000000     
   8.5529478900867265E-003   1.2523857537059934E-002   0.0000000000000000     
   1.0785568360262609E-002   1.4888624068755327E-002   0.0000000000000000     
   1.3894757854612094E-002   1.6875824794753514E-002   0.0000000000000000     
   1.7880516373135182E-002   1.8485459715054487E-002   0.0000000000000000     
   7.0765823240697776E-003   9.7193110858981684E-003   0.0000000000000000     
   8.8541983153911635E-003   1.2699052396636002E-002   0.0000000000000000     
   1.0744660653225413E-002   1.4955640532015781E-002   0.0000000000000000     
   1.2747969337572525E-002   1.6489075492037503E-002   0.0000000000000000     
   1.4864124368432501E-002   1.7299357276701174E-002   0.0000000000000000     
   1.8697357541921658E-002   2.1808807974945599E-002   0.0000000000000000     
   1.8569396528246213E-002   2.3249897464621475E-002   0.0000000000000000     
   1.9891516732428303E-002   2.3254978232081721E-002   0.0000000000000000     
   2.2663718154467938E-002   2.1824050277326354E-002   0.0000000000000000     
   2.6886000794365109E-002   1.8957113600355364E-002   0.0000000000000000     
   1.9797132959879761E-002   2.0740185064176703E-002   0.0000000000000000     
   2.1944695216041657E-002   2.2549173581909211E-002   0.0000000000000000     
   2.2564875750028197E-002   2.3424046446402950E-002   0.0000000000000000     
   2.1657674561839379E-002   2.3364803657657928E-002   0.0000000000000000     
   1.9223091651475198E-002   2.2371445215674138E-002   0.0000000000000000     
   1.9524852570284267E-002   1.9632402310879662E-002   0.0000000000000000     
   2.2776361191575091E-002   2.1495287104914596E-002   0.0000000000000000     
   2.3190351052139003E-002   2.3024010020536494E-002   0.0000000000000000     
   2.0766822151975992E-002   2.4218571057745355E-002   0.0000000000000000     
   1.5505774491086071E-002   2.5078970216541169E-002   0.0000000000000000     
   1.7880516373135182E-002   1.8485459715054487E-002   0.0000000000000000     
   2.1064394454846511E-002   2.0088238033637639E-002   0.0000000000000000     
   2.1767942638760706E-002   2.2054868954482353E-002   0.0000000000000000     
   1.9991160924877783E-002   2.4385352477588627E-002   0.0000000000000000     
   1.5734049313197732E-002   2.7079688602956464E-002   0.0000000000000000     
   1.4864124368432501E-002   1.7299357276701174E-002   0.0000000000000000     
   1.6808795005855911E-002   1.8328026368078336E-002   0.0000000000000000     
   1.8297650509893331E-002   2.0516623248240527E-002   0.0000000000000000     
   1.9330690880544749E-002   2.3865147917187756E-002   0.0000000000000000     
   1.9907916117810176E-002   2.8373600374920014E-002   0.0000000000000000     
   2.6886000794365109E-002   1.8957113600355364E-002   0.0000000000000000     
   3.2089791864152659E-002   1.6540130943427267E-002   0.0000000000000000     
   3.7806518575863417E-002   1.6459065048800570E-002   0.0000000000000000     
   4.4036180929497397E-002   1.8713915916475279E-002   0.0000000000000000     
   5.0778778925054585E-002   2.3304683546451394E-002   0.0000000000000000     
   1.9223091651475198E-002   2.2371445215674138E-002   0.0000000000000000     
   1.7960701983104864E-002   2.1816568573007712E-002   0.0000000000000000     
   2.0570080520897586E-002   2.3072771182214773E-002   0.0000000000000000     
   2.7051227264853355E-002   2.6140053043295315E-002   0.0000000000000000     
   3.7404142214972180E-002   3.1018414156249355E-002   0.0000000000000000     
   1.5505774491086071E-002   2.5078970216541169E-002   0.0000000000000000     
   1.1310331885365749E-002   2.6314787757948696E-002   0.0000000000000000     
   1.2083618150711536E-002   2.8635603942992669E-002   0.0000000000000000     
   1.7825633287123433E-002   3.2041418771673082E-002   0.0000000000000000     
   2.8536377294601439E-002   3.6532232243989944E-002   0.0000000000000000     
   1.5734049313197732E-002   2.7079688602956464E-002   0.0000000000000000     
   1.2138681570935310E-002   3.0034788498250222E-002   0.0000000000000000     
   1.2347131465305276E-002   3.3147563331134250E-002   0.0000000000000000     
   1.6359398996307627E-002   3.6418013101608575E-002   0.0000000000000000     
   2.4175484163942367E-002   3.9846137809673166E-002   0.0000000000000000     
   1.9907916117810176E-002   2.8373600374920014E-002   0.0000000000000000     
   2.0445751039813550E-002   3.2976570793912280E-002   0.0000000000000000     
   2.1360620464678799E-002   3.6608649346639544E-002   0.0000000000000000     
   2.2652524392405931E-002   3.9269836033101781E-002   0.0000000000000000     
   2.4321462822994945E-002   4.0960130853299019E-002   0.0000000000000000     
   5.0778778925054585E-002   2.3304683546451394E-002   0.0000000000000000     
   5.6235644258074660E-002   2.8582853119104600E-002   0.0000000000000000     
   5.8608108624097280E-002   3.2899909814810571E-002   0.0000000000000000     
   5.7896172023122465E-002   3.6255853633569333E-002   0.0000000000000000     
   5.4099834455150209E-002   3.8650684575380859E-002   0.0000000000000000     
   3.7404142214972180E-002   3.1018414156249355E-002   0.0000000000000000     
   4.7470446671347012E-002   3.6037215156304377E-002   0.0000000000000000     
   5.3091761934070780E-002   3.9525816678687889E-002   0.0000000000000000     
   5.4268088003143498E-002   4.1484218723399892E-002   0.0000000000000000     
   5.0999424878565167E-002   4.1912421290440385E-002   0.0000000000000000     
   2.8536377294601439E-002   3.6532232243989944E-002   0.0000000000000000     
   3.9667059228477450E-002   4.0706963415362341E-002   0.0000000000000000     
   4.6668888144083369E-002   4.3164531341209351E-002   0.0000000000000000     
   4.9541864041419185E-002   4.3904936021530984E-002   0.0000000000000000     
   4.8285986920484900E-002   4.2928177456327217E-002   0.0000000000000000     
   2.4175484163942367E-002   3.9846137809673166E-002   0.0000000000000000     
   3.2825481929466008E-002   4.2592097896278477E-002   0.0000000000000000     
   3.9339487254135053E-002   4.3816053802374959E-002   0.0000000000000000     
   4.3717500137949519E-002   4.3518005527962582E-002   0.0000000000000000     
   4.5959520580909408E-002   4.1697953073041374E-002   0.0000000000000000     
   2.4321462822994945E-002   4.0960130853299019E-002   0.0000000000000000     
   2.6945714774312641E-002   4.1692618599052794E-002   0.0000000000000000     
   3.1103559264225832E-002   4.1480384062184704E-002   0.0000000000000000     
   3.6794996292734521E-002   4.0323427242694714E-002   0.0000000000000000     
   4.4020025859838691E-002   3.8221748140582851E-002   0.0000000000000000     
   5.4099834455150209E-002   3.8650684575380859E-002   0.0000000000000000     
   4.9343170076057888E-002   3.9874455389061328E-002   0.0000000000000000     
   4.5750253041722908E-002   3.9717218823426929E-002   0.0000000000000000     
   4.3321083352145254E-002   3.8178974878477635E-002   0.0000000000000000     
   4.2055661007324940E-002   3.5259723554213460E-002   0.0000000000000000     
   5.0999424878565167E-002   4.1912421290440385E-002   0.0000000000000000     
   4.6406363280625321E-002   4.1164332703345227E-002   0.0000000000000000     
   4.3609493929613490E-002   3.9593861285650289E-002   0.0000000000000000     
   4.2608816825529673E-002   3.7201007037355571E-002   0.0000000000000000     
   4.3404331968373878E-002   3.3985769958461073E-002   0.0000000000000000     
   4.8285986920484900E-002   4.2928177456327217E-002   0.0000000000000000     
   4.5645430467051946E-002   4.0945204754057683E-002   0.0000000000000000     
   4.4364368366891727E-002   3.8666967023181967E-002   0.0000000000000000     
   4.4442800620004254E-002   3.6093464263700067E-002   0.0000000000000000     
   4.5880727226389535E-002   3.3224696475611999E-002   0.0000000000000000     
   4.5959520580909408E-002   4.1697953073041374E-002   0.0000000000000000     
   4.7060371635337765E-002   3.9217071541198710E-002   0.0000000000000000     
   4.8014876353557626E-002   3.6936536036021969E-002   0.0000000000000000     
   4.8823034735569003E-002   3.4856346557511145E-002   0.0000000000000000     
   4.9484846781371904E-002   3.2976503105666244E-002   0.0000000000000000     
   4.4020025859838691E-002   3.8221748140582851E-002   0.0000000000000000     
   5.0651186785482770E-002   3.5979933064768307E-002   0.0000000000000000     
   5.4561017889611173E-002   3.4402568324170282E-002   0.0000000000000000     
   5.5749519172223920E-002   3.3489653918788782E-002   0.0000000000000000     
   5.4216690633320984E-002   3.3241189848623801E-002   0.0000000000000000     
   4.2055661007324940E-002   3.5259723554213460E-002   0.0000000000000000     
   4.1181778433710084E-002   3.1731274688939812E-002   0.0000000000000000     
   3.9927228057748822E-002   2.8365438120962094E-002   0.0000000000000000     
   3.8292009879441140E-002   2.5162213850280314E-002   0.0000000000000000     
   3.6276123898787045E-002   2.2121601876894458E-002   0.0000000000000000     
   4.3404331968373878E-002   3.3985769958461073E-002   0.0000000000000000     
   4.4500955689677109E-002   3.0628106546352320E-002   0.0000000000000000     
   4.4403604320970361E-002   2.7807973298414820E-002   0.0000000000000000     
   4.3112277862253641E-002   2.5525370214648596E-002   0.0000000000000000     
   4.0626976313526950E-002   2.3780297295053626E-002   0.0000000000000000     
   4.5880727226389535E-002   3.3224696475611999E-002   0.0000000000000000     
   4.7349212604532342E-002   3.0440554177128279E-002   0.0000000000000000     
   4.7519321172917503E-002   2.8120927886459465E-002   0.0000000000000000     
   4.6391052931544989E-002   2.6265817603605541E-002   0.0000000000000000     
   4.3964407880414808E-002   2.4875223328566499E-002   0.0000000000000000     
   4.9484846781371904E-002   3.2976503105666244E-002   0.0000000000000000     
   4.9726549178275806E-002   3.1168617581267714E-002   0.0000000000000000     
   4.9274378613590221E-002   2.9304301885096008E-002   0.0000000000000000     
   4.8128335087315163E-002   2.7383556017151131E-002   0.0000000000000000     
   4.6288418599450605E-002   2.5406379977433068E-002   0.0000000000000000     
   5.4216690633320984E-002   3.3241189848623801E-002   0.0000000000000000     
   5.1632965410907491E-002   3.2812296758770614E-002   0.0000000000000000     
   4.9668776642988549E-002   3.1358095294324470E-002   0.0000000000000000     
   4.8324124329564164E-002   2.8878585455285384E-002   0.0000000000000000     
   4.7599008470634335E-002   2.5373767241653342E-002   0.0000000000000000     
   3.6276123898787045E-002   2.2121601876894458E-002   0.0000000000000000     
   3.3085976265805131E-002   1.8878545028683878E-002   0.0000000000000000     
   2.7927973130513990E-002   1.5067986133527929E-002   0.0000000000000000     
   2.0802114492913630E-002   1.0689925191426600E-002   0.0000000000000000     
   1.1708400353004042E-002   5.7443622023798952E-003   0.0000000000000000     
   4.0626976313526950E-002   2.3780297295053626E-002   0.0000000000000000     
   3.7476965209008423E-002   2.1231907727335814E-002   0.0000000000000000     
   3.4191510082916196E-002   1.6539354699201037E-002   0.0000000000000000     
   3.0770610935250266E-002   9.7026382106492892E-003   0.0000000000000000     
   2.7214267766010637E-002   7.2175826168058245E-004   0.0000000000000000     
   4.3964407880414808E-002   2.4875223328566499E-002   0.0000000000000000     
   4.1264260280412170E-002   2.2494552703046441E-002   0.0000000000000000     
   3.9315484392422294E-002   1.7669213368749447E-002   0.0000000000000000     
   3.8118080216445180E-002   1.0399205325675513E-002   0.0000000000000000     
   3.7672047752480835E-002   6.8452857382464297E-004   0.0000000000000000     
   4.6288418599450605E-002   2.5406379977433068E-002   0.0000000000000000     
   4.4447861480016372E-002   2.2666479955815777E-002   0.0000000000000000     
   4.3299896059032297E-002   1.8457562142173169E-002   0.0000000000000000     
   4.2844522336498388E-002   1.2779626536505276E-002   0.0000000000000000     
   4.3081740312414629E-002   5.6326731388120742E-003   0.0000000000000000     
   4.7599008470634335E-002   2.5373767241653342E-002   0.0000000000000000     
   4.7027768807821030E-002   2.1747689485643800E-002   0.0000000000000000     
   4.6144745082746207E-002   1.8904401019472213E-002   0.0000000000000000     
   4.4949937295409872E-002   1.6843901843138571E-002   0.0000000000000000     
   4.3443345445812021E-002   1.5566191956642881E-002   0.0000000000000000     
   0.0000000000000000        0.0000000000000000        0.0000000000000000     
   1.8051101532318133E-003   1.7462101762678055E-003   0.0000000000000000     
   3.5862439249873808E-003   3.9481654160067690E-003   0.0000000000000000     
   5.3434013152667027E-003   6.6058657192168907E-003   0.0000000000000000     
   7.0765823240697776E-003   9.7193110858981684E-003   0.0000000000000000     
   0.0000000000000000        0.0000000000000000        0.0000000000000000     
   1.2427106336748233E-003   1.4888623956992419E-003   0.0000000000000000     
   2.8639524695222712E-003   3.6006774830593270E-003   0.0000000000000000     
   4.8637255075423434E-003   6.3354452620802536E-003   0.0000000000000000     
   7.2420297477350393E-003   9.6931657327620230E-003   0.0000000000000000     
   0.0000000000000000        0.0000000000000000        0.0000000000000000     
   1.0186845996900070E-003   1.4666999866094594E-003   0.0000000000000000     
   2.5164589718815497E-003   3.5423929057804403E-003   0.0000000000000000     
   4.4933231165746280E-003   6.2270787575129426E-003   0.0000000000000000     
   6.9492770337692420E-003   9.5207575418069686E-003   0.0000000000000000     
   0.0000000000000000        0.0000000000000000        0.0000000000000000     
   1.1330320512773640E-003   1.6797229489984582E-003   0.0000000000000000     
   2.5437634320652166E-003   3.7733116841701113E-003   0.0000000000000000     
   4.2321941423635575E-003   6.2807662055149593E-003   0.0000000000000000     
   6.1983241821723873E-003   9.2020865130330049E-003   0.0000000000000000     
   0.0000000000000000        0.0000000000000000        0.0000000000000000     
   1.5857529884368946E-003   2.1279312828662378E-003   0.0000000000000000     
   2.9458658500732720E-003   4.2934338182283394E-003   0.0000000000000000     
   4.0803385849091326E-003   6.4965076060863021E-003   0.0000000000000000     
   4.9891711929444752E-003   8.7371526464401286E-003   0.0000000000000000     
   7.0765823240697776E-003   9.7193110858981684E-003   0.0000000000000000     
   8.8541983153911635E-003   1.2699052396636002E-002   0.0000000000000000     
   1.0744660653225413E-002   1.4955640532015781E-002   0.0000000000000000     
   1.2747969337572525E-002   1.6489075492037503E-002   0.0000000000000000     
   1.4864124368432501E-002   1.7299357276701174E-002   0.0000000000000000     
   7.2420297477350393E-003   9.6931657327620230E-003   0.0000000000000000     
   9.4599934842401531E-003   1.2867421234195318E-002   0.0000000000000000     
   1.0978745011197473E-002   1.5051794105470829E-002   0.0000000000000000     
   1.1798284328607002E-002   1.6246284346588553E-002   0.0000000000000000     
   1.1918611436468740E-002   1.6450891957548487E-002   0.0000000000000000     
   6.9492770337692420E-003   9.5207575418069686E-003   0.0000000000000000     
   9.1920033503387275E-003   1.2644145428332944E-002   0.0000000000000000     
   1.0529184693156420E-002   1.4817958586761309E-002   0.0000000000000000     
   1.0960821062222315E-002   1.6042197017092058E-002   0.0000000000000000     
   1.0486912457536421E-002   1.6316860719325196E-002   0.0000000000000000     
   6.1983241821723873E-003   9.2020865130330049E-003   0.0000000000000000     
   8.0502279136868901E-003   1.2029224979048878E-002   0.0000000000000000     
   9.3959796991022488E-003   1.4254133975887219E-002   0.0000000000000000     
   1.0235579538418464E-002   1.5876813503548030E-002   0.0000000000000000     
   1.0569027431635536E-002   1.6897263562031303E-002   0.0000000000000000     
   4.9891711929444752E-003   8.7371526464401286E-003   0.0000000000000000     
   6.0346671742846402E-003   1.1022659886343118E-002   0.0000000000000000     
   7.5791300290349636E-003   1.3360320272848558E-002   0.0000000000000000     
   9.6225597571954462E-003   1.5750133805956457E-002   0.0000000000000000     
   1.2164956358766091E-002   1.8192100485666812E-002   0.0000000000000000     
   1.4864124368432501E-002   1.7299357276701174E-002   0.0000000000000000     
   1.6808795005855911E-002   1.8328026368078336E-002   0.0000000000000000     