 <VTKFile type="UnstructuredGrid"  version="0.1"   >
 <UnstructuredGrid>
 <Piece  NumberOfPoints="          1600 "  NumberOfCells="         1024 ">
 <Points>
 <DataArray  type="Float64" NumberOfComponents="3"  format="ascii" >
   0.0000000000000000        0.0000000000000000        0.0000000000000000     
   3.1250000000000000E-002   0.0000000000000000        0.0000000000000000     
   6.2500000000000000E-002   0.0000000000000000        0.0000000000000000     
   9.3750000000000000E-002   0.0000000000000000        0.0000000000000000     
  0.12500000000000000        0.0000000000000000        0.0000000000000000     
   0.0000000000000000        3.1250000000000000E-002   0.0000000000000000     
   3.1250000000000000E-002   3.1250000000000000E-002   0.0000000000000000     
   6.2500000000000000E-002   3.1250000000000000E-002   0.0000000000000000     
   9.3750000000000000E-002   3.1250000000000000E-002   0.0000000000000000     
  0.12500000000000000        3.1250000000000000E-002   0.0000000000000000     
   0.0000000000000000        6.2500000000000000E-002   0.0000000000000000     
   3.1250000000000000E-002   6.2500000000000000E-002   0.0000000000000000     
   6.2500000000000000E-002   6.2500000000000000E-002   0.0000000000000000     
   9.3750000000000000E-002   6.2500000000000000E-002   0.0000000000000000     
  0.12500000000000000        6.2500000000000000E-002   0.0000000000000000     
   0.0000000000000000        9.3750000000000000E-002   0.0000000000000000     
   3.1250000000000000E-002   9.3750000000000000E-002   0.0000000000000000     
   6.2500000000000000E-002   9.3750000000000000E-002   0.0000000000000000     
   9.3750000000000000E-002   9.3750000000000000E-002   0.0000000000000000     
  0.12500000000000000        9.3750000000000000E-002   0.0000000000000000     
   0.0000000000000000       0.12500000000000000        0.0000000000000000     
   3.1250000000000000E-002  0.12500000000000000        0.0000000000000000     
   6.2500000000000000E-002  0.12500000000000000        0.0000000000000000     
   9.3750000000000000E-002  0.12500000000000000        0.0000000000000000     
  0.12500000000000000       0.12500000000000000        0.0000000000000000     
  0.12500000000000000        0.0000000000000000        0.0000000000000000     
  0.15625000000000000        0.0000000000000000        0.0000000000000000     
  0.18750000000000000        0.0000000000000000        0.0000000000000000     
  0.21875000000000000        0.0000000000000000        0.0000000000000000     
  0.25000000000000000        0.0000000000000000        0.0000000000000000     
  0.12500000000000000        3.1250000000000000E-002   0.0000000000000000     
  0.15625000000000000        3.1250000000000000E-002   0.0000000000000000     
  0.18750000000000000        3.1250000000000000E-002   0.0000000000000000     
  0.21875000000000000        3.1250000000000000E-002   0.0000000000000000     
  0.25000000000000000        3.1250000000000000E-002   0.0000000000000000     
  0.12500000000000000        6.2500000000000000E-002   0.0000000000000000     
  0.15625000000000000        6.2500000000000000E-002   0.0000000000000000     
  0.18750000000000000        6.2500000000000000E-002   0.0000000000000000     
  0.21875000000000000        6.2500000000000000E-002   0.0000000000000000     
  0.25000000000000000        6.2500000000000000E-002   0.0000000000000000     
  0.12500000000000000        9.3750000000000000E-002   0.0000000000000000     
  0.15625000000000000        9.3750000000000000E-002   0.0000000000000000     
  0.18750000000000000        9.3750000000000000E-002   0.0000000000000000     
  0.21875000000000000        9.3750000000000000E-002   0.0000000000000000     
  0.25000000000000000        9.3750000000000000E-002   0.0000000000000000     
  0.12500000000000000       0.12500000000000000        0.0000000000000000     
  0.15625000000000000       0.12500000000000000        0.0000000000000000     
  0.18750000000000000       0.12500000000000000        0.0000000000000000     
  0.21875000000000000       0.12500000000000000        0.0000000000000000     
  0.25000000000000000       0.12500000000000000        0.0000000000000000     
  0.25000000000000000        0.0000000000000000        0.0000000000000000     
  0.28125000000000000        0.0000000000000000        0.0000000000000000     
  0.31250000000000000        0.0000000000000000        0.0000000000000000     
  0.34375000000000000        0.0000000000000000        0.0000000000000000     
  0.37500000000000000        0.0000000000000000        0.0000000000000000     
  0.25000000000000000        3.1250000000000000E-002   0.0000000000000000     
  0.28125000000000000        3.1250000000000000E-002   0.0000000000000000     
  0.31250000000000000        3.1250000000000000E-002   0.0000000000000000     
  0.34375000000000000        3.1250000000000000E-002   0.0000000000000000     
  0.37500000000000000        3.1250000000000000E-002   0.0000000000000000     
  0.25000000000000000        6.2500000000000000E-002   0.0000000000000000     
  0.28125000000000000        6.2500000000000000E-002   0.0000000000000000     
  0.31250000000000000        6.2500000000000000E-002   0.0000000000000000     
  0.34375000000000000        6.2500000000000000E-002   0.0000000000000000     
  0.37500000000000000        6.2500000000000000E-002   0.0000000000000000     
  0.25000000000000000        9.3750000000000000E-002   0.0000000000000000     
  0.28125000000000000        9.3750000000000000E-002   0.0000000000000000     
  0.31250000000000000        9.3750000000000000E-002   0.0000000000000000     
  0.34375000000000000        9.3750000000000000E-002   0.0000000000000000     
  0.37500000000000000        9.3750000000000000E-002   0.0000000000000000     
  0.25000000000000000       0.12500000000000000        0.0000000000000000     
  0.28125000000000000       0.12500000000000000        0.0000000000000000     
  0.31250000000000000       0.12500000000000000        0.0000000000000000     
  0.34375000000000000       0.12500000000000000        0.0000000000000000     
  0.37500000000000000       0.12500000000000000        0.0000000000000000     
  0.37500000000000000        0.0000000000000000        0.0000000000000000     
  0.40625000000000000        0.0000000000000000        0.0000000000000000     
  0.43750000000000000        0.0000000000000000        0.0000000000000000     
  0.46875000000000000        0.0000000000000000        0.0000000000000000     
  0.50000000000000000        0.0000000000000000        0.0000000000000000     
  0.37500000000000000        3.1250000000000000E-002   0.0000000000000000     
  0.40625000000000000        3.1250000000000000E-002   0.0000000000000000     
  0.43750000000000000        3.1250000000000000E-002   0.0000000000000000     
  0.46875000000000000        3.1250000000000000E-002   0.0000000000000000     
  0.50000000000000000        3.1250000000000000E-002   0.0000000000000000     
  0.37500000000000000        6.2500000000000000E-002   0.0000000000000000     
  0.40625000000000000        6.2500000000000000E-002   0.0000000000000000     
  0.43750000000000000        6.2500000000000000E-002   0.0000000000000000     
  0.46875000000000000        6.2500000000000000E-002   0.0000000000000000     
  0.50000000000000000        6.2500000000000000E-002   0.0000000000000000     
  0.37500000000000000        9.3750000000000000E-002   0.0000000000000000     
  0.40625000000000000        9.3750000000000000E-002   0.0000000000000000     
  0.43750000000000000        9.3750000000000000E-002   0.0000000000000000     
  0.46875000000000000        9.3750000000000000E-002   0.0000000000000000     
  0.50000000000000000        9.3750000000000000E-002   0.0000000000000000     
  0.37500000000000000       0.12500000000000000        0.0000000000000000     
  0.40625000000000000       0.12500000000000000        0.0000000000000000     
  0.43750000000000000       0.12500000000000000        0.0000000000000000     
  0.46875000000000000       0.12500000000000000        0.0000000000000000     
  0.50000000000000000       0.12500000000000000        0.0000000000000000     
  0.50000000000000000        0.0000000000000000        0.0000000000000000     
  0.53125000000000000        0.0000000000000000        0.0000000000000000     
  0.56250000000000000        0.0000000000000000        0.0000000000000000     
  0.59375000000000000        0.0000000000000000        0.0000000000000000     
  0.62500000000000000        0.0000000000000000        0.0000000000000000     
  0.50000000000000000        3.1250000000000000E-002   0.0000000000000000     
  0.53125000000000000        3.1250000000000000E-002   0.0000000000000000     
  0.56250000000000000        3.1250000000000000E-002   0.0000000000000000     
  0.59375000000000000        3.1250000000000000E-002   0.0000000000000000     
  0.62500000000000000        3.1250000000000000E-002   0.0000000000000000     
  0.50000000000000000        6.2500000000000000E-002   0.0000000000000000     
  0.53125000000000000        6.2500000000000000E-002   0.0000000000000000     
  0.56250000000000000        6.2500000000000000E-002   0.0000000000000000     
  0.59375000000000000        6.2500000000000000E-002   0.0000000000000000     
  0.62500000000000000        6.2500000000000000E-002   0.0000000000000000     
  0.50000000000000000        9.3750000000000000E-002   0.0000000000000000     
  0.53125000000000000        9.3750000000000000E-002   0.0000000000000000     
  0.56250000000000000        9.3750000000000000E-002   0.0000000000000000     
  0.59375000000000000        9.3750000000000000E-002   0.0000000000000000     
  0.62500000000000000        9.3750000000000000E-002   0.0000000000000000     
  0.50000000000000000       0.12500000000000000        0.0000000000000000     
  0.53125000000000000       0.12500000000000000        0.0000000000000000     
  0.56250000000000000       0.12500000000000000        0.0000000000000000     
[...]
 <PointData>
 <DataArray  type="Float64" Name="disp" NumberOfComponents="3" format="ascii">
   0.0000000000000000        0.0000000000000000        0.0000000000000000     
   6.0960069696099819E-003   3.7903274601515072E-003   0.0000000000000000     
   1.1666082892434428E-002   7.3237702211913919E-003   0.0000000000000000     
   1.6710227768473335E-002   1.0600328283119654E-002   0.0000000000000000     
   2.1228441597726709E-002   1.3620001645936294E-002   0.0000000000000000     
   0.0000000000000000        0.0000000000000000        0.0000000000000000     
   4.8911766785005948E-003   3.0220299175966478E-003   0.0000000000000000     
   9.5736633999214810E-003   6.0604507104439799E-003   0.0000000000000000     
   1.4047460164262660E-002   9.1152623785419953E-003   0.0000000000000000     
   1.8312566971524131E-002   1.2186464921890697E-002   0.0000000000000000     
   0.0000000000000000        0.0000000000000000        0.0000000000000000     
   3.9535732701352268E-003   2.4250169877147116E-003   0.0000000000000000     
   7.9106116582005719E-003   5.0628272659355130E-003   0.0000000000000000     
   1.1871115164196033E-002   7.9134308346624060E-003   0.0000000000000000     
   1.5835083788121613E-002   1.0976827693895389E-002   0.0000000000000000     
   0.0000000000000000        0.0000000000000000        0.0000000000000000     
   3.2831967445138784E-003   1.9992886705056975E-003   0.0000000000000000     
   6.6769276672716971E-003   4.3308998876659920E-003   0.0000000000000000     
   1.0181192768273456E-002   6.9948336514808803E-003   0.0000000000000000     
   1.3795992047519155E-002   9.9910899619503665E-003   0.0000000000000000     
   0.0000000000000000        0.0000000000000000        0.0000000000000000     
   2.8800471016365500E-003   1.7448449659696070E-003   0.0000000000000000     
   5.8726114271348603E-003   3.8646685756354151E-003   0.0000000000000000     
   8.9776929764949324E-003   6.3594708289974235E-003   0.0000000000000000     
   1.2195291749716761E-002   9.2292517260556348E-003   0.0000000000000000     
   2.1228441597726709E-002   1.3620001645936294E-002   0.0000000000000000     
   2.5433518004253069E-002   1.6613173208301867E-002   0.0000000000000000     
   2.9538250612110937E-002   1.9810225868876936E-002   0.0000000000000000     
   3.3542639421300313E-002   2.3211159627661501E-002   0.0000000000000000     
   3.7446684431821191E-002   2.6815974484655558E-002   0.0000000000000000     
   1.8312566971524131E-002   1.2186464921890697E-002   0.0000000000000000     
   2.2407207202608272E-002   1.5342161512186144E-002   0.0000000000000000     
   2.6369604238417478E-002   1.8650455321124401E-002   0.0000000000000000     
   3.0199758078951738E-002   2.2111346348705464E-002   0.0000000000000000     
   3.3897668724211065E-002   2.5724834594929337E-002   0.0000000000000000     
   1.5835083788121613E-002   1.0976827693895389E-002   0.0000000000000000     
   1.9730799176817814E-002   1.4211607460891231E-002   0.0000000000000000     
   2.3486542977125140E-002   1.7576359752906709E-002   0.0000000000000000     
   2.7102315189043595E-002   2.1071084569941813E-002   0.0000000000000000     
   3.0578115812573171E-002   2.4695781911996548E-002   0.0000000000000000     
   1.3795992047519155E-002   9.9910899619503665E-003   0.0000000000000000     
   1.7404293926881684E-002   1.3221511054417132E-002   0.0000000000000000     
   2.0889066828233920E-002   1.6587939164223860E-002   0.0000000000000000     
   2.4250310751575865E-002   2.0090374291370543E-002   0.0000000000000000     
   2.7488025696907517E-002   2.3728816435857190E-002   0.0000000000000000     
   1.2195291749716761E-002   9.2292517260556348E-003   0.0000000000000000     
   1.5427691452799881E-002   1.2371872292763842E-002   0.0000000000000000     
   1.8577175791743811E-002   1.5685193555075850E-002   0.0000000000000000     
   2.1643744766548553E-002   1.9169215512991652E-002   0.0000000000000000     
   2.4627398377214105E-002   2.2823938166511262E-002   0.0000000000000000     
   3.7446684431821191E-002   2.6815974484655558E-002   0.0000000000000000     
   4.1255216818255468E-002   3.0620525103387378E-002   0.0000000000000000     
   4.4973067755185024E-002   3.4620666147385244E-002   0.0000000000000000     
   4.8600237242609867E-002   3.8816397616649137E-002   0.0000000000000000     
   5.2136725280529983E-002   4.3207719511179077E-002   0.0000000000000000     
   3.3897668724211065E-002   2.5724834594929337E-002   0.0000000000000000     
   3.7486494531393383E-002   2.9520361185077820E-002   0.0000000000000000     
   4.0989393857696649E-002   3.3527367244432713E-002   0.0000000000000000     
   4.4406366703120856E-002   3.7745852772994019E-002   0.0000000000000000     
   4.7737413067665997E-002   4.2175817770761730E-002   0.0000000000000000     
   3.0578115812573171E-002   2.4695781911996548E-002   0.0000000000000000     
   3.3943072926353055E-002   2.8495608203300028E-002   0.0000000000000000     
   3.7226314609022412E-002   3.2515719868081376E-002   0.0000000000000000     
   4.0427840860581238E-002   3.6756116906340584E-002   0.0000000000000000     
   4.3547651681029552E-002   4.1216799318077646E-002   0.0000000000000000     
   2.7488025696907517E-002   2.3728816435857190E-002   0.0000000000000000     
   3.0624952003134476E-002   2.7546266158054011E-002   0.0000000000000000     
   3.3683830009162315E-002   3.1585724018331228E-002   0.0000000000000000     
   3.6664659714991048E-002   3.5847190016688832E-002   0.0000000000000000     
   3.9567441120620654E-002   4.0330664153126833E-002   0.0000000000000000     
   2.4627398377214105E-002   2.2823938166511262E-002   0.0000000000000000     
   2.7532131761737647E-002   2.6672335049339763E-002   0.0000000000000000     
   3.0361940058116370E-002   3.0737379695182268E-002   0.0000000000000000     
   3.3116823266350251E-002   3.5019072104038776E-002   0.0000000000000000     
   3.5796781386439311E-002   3.9517412275909283E-002   0.0000000000000000     
   5.2136725280529983E-002   4.3207719511179077E-002   0.0000000000000000     
   5.5577782849658842E-002   4.7798452494038329E-002   0.0000000000000000     
   5.8918660930709882E-002   5.2592417228290160E-002   0.0000000000000000     
   6.2159359523683122E-002   5.7589613713934576E-002   0.0000000000000000     
   6.5299878628578542E-002   6.2790041950971584E-002   0.0000000000000000     
   4.7737413067665997E-002   4.2175817770761730E-002   0.0000000000000000     
   5.0978274443672943E-002   4.6809691867850153E-002   0.0000000000000000     
   5.4124692323482541E-002   5.1639904694373587E-002   0.0000000000000000     
   5.7176666707094814E-002   5.6666456250332037E-002   0.0000000000000000     
   6.0134197594509733E-002   6.1889346535725490E-002   0.0000000000000000     
   4.3547651681029552E-002   4.1216799318077646E-002   0.0000000000000000     
   4.6582564424035834E-002   4.5884091409549660E-002   0.0000000000000000     
   4.9529396443268585E-002   5.0744317487013725E-002   0.0000000000000000     
   5.2388147738727818E-002   5.5797477550469821E-002   0.0000000000000000     
   5.5158818310413527E-002   6.1043571599917960E-002   0.0000000000000000     
   3.9567441120620654E-002   4.0330664153126833E-002   0.0000000000000000     
   4.2390652790747538E-002   4.5021651119136870E-002   0.0000000000000000     
   4.5132773290068026E-002   4.9905655606210561E-002   0.0000000000000000     
   4.7793802618582154E-002   5.4982677614347927E-002   0.0000000000000000     
   5.0373740776289887E-002   6.0252717143548969E-002   0.0000000000000000     
   3.5796781386439311E-002   3.9517412275909283E-002   0.0000000000000000     
   3.8402539543808019E-002   4.4222370996611741E-002   0.0000000000000000     
   4.0934822863880845E-002   4.9123919051964095E-002   0.0000000000000000     
   4.3393631346657795E-002   5.4222056441966364E-002   0.0000000000000000     
   4.5778964992138862E-002   5.9516783166618528E-002   0.0000000000000000     
   6.5299878628578542E-002   6.2790041950971584E-002   0.0000000000000000     
   6.8347190240345357E-002   6.8180193375537421E-002   0.0000000000000000     
   7.1308266353932767E-002   7.3746559423768343E-002   0.0000000000000000     
   7.4183106969340787E-002   7.9489140095664365E-002   0.0000000000000000     
   7.6971712086569388E-002   8.5407935391225487E-002   0.0000000000000000     
   6.0134197594509733E-002   6.1889346535725490E-002   0.0000000000000000     
   6.3001761948057927E-002   6.7300272533318828E-002   0.0000000000000000     
   6.5783836730070003E-002   7.2890931225876920E-002   0.0000000000000000     
   6.8480421940545960E-002   7.8661322613399753E-002   0.0000000000000000     
   7.1091517579485786E-002   8.4611446695887313E-002   0.0000000000000000     
   5.5158818310413527E-002   6.1043571599917960E-002   0.0000000000000000     
   5.7843775044279774E-002   6.6477016247874249E-002   0.0000000000000000     
   6.0445384826280674E-002   7.2092228106854783E-002   0.0000000000000000     
   6.2963647656416211E-002   7.7889207176859598E-002   0.0000000000000000     
   6.5398563534686371E-002   8.3867953457888667E-002   0.0000000000000000     
   5.0373740776289887E-002   6.0252717143548969E-002   0.0000000000000000     
   5.2873229529010898E-002   6.5710424519203670E-002   0.0000000000000000     
   5.5292910642564766E-002   7.1350450066701973E-002   0.0000000000000000     
   5.7632784116951524E-002   7.7172793786043956E-002   0.0000000000000000     
   5.9892849952171152E-002   8.3177455677229506E-002   0.0000000000000000     
   4.5778964992138862E-002   5.9516783166618528E-002   0.0000000000000000     
   4.8090125402251285E-002   6.5000497347307076E-002   0.0000000000000000     
   5.0326414178922314E-002   7.0665597105418476E-002   0.0000000000000000     
   5.2487831322151922E-002   7.6512082440952742E-002   0.0000000000000000     
   5.4574376831940122E-002   8.2539953353909873E-002   0.0000000000000000     
   7.6971712086569388E-002   8.5407935391225487E-002   0.0000000000000000     
   7.9666436490933523E-002   9.1496779404862685E-002   0.0000000000000000     
   8.2259634967748060E-002   9.7749506230987021E-002   0.0000000000000000     
   8.4751307517013028E-002  0.10416611586959845        0.0000000000000000     
   8.7141454138728425E-002  0.11074660832069702        0.0000000000000000     
   7.1091517579485786E-002   8.4611446695887313E-002   0.0000000000000000     
   7.3612589139120138E-002   9.0732577250785429E-002   0.0000000000000000     
   7.6039102111679677E-002   9.7015988055539820E-002   0.0000000000000000     
   7.8371056497164360E-002  0.10346167911015056        0.0000000000000000     
   8.0608452295574229E-002  0.11006965041461758        0.0000000000000000     
   6.5398563534686371E-002   8.3867953457888667E-002   0.0000000000000000     
   6.7747922813359077E-002   9.0018068691991165E-002   0.0000000000000000     
   7.0009515844702205E-002   9.6329154621216287E-002   0.0000000000000000     
   7.2183342628715758E-002  0.10280121124556407        0.0000000000000000     
   7.4269403165399719E-002  0.10943423856503445        0.0000000000000000     
   5.9892849952171152E-002   8.3177455677229506E-002   0.0000000000000000     
   6.2072437513650318E-002   8.9353253728479937E-002   0.0000000000000000     
   6.4170876166815660E-002   9.5689005928016435E-002   0.0000000000000000     
   6.6188165911667179E-002  0.10218471227583897        0.0000000000000000     
   6.8124306748204883E-002  0.10884037277194759        0.0000000000000000     
   5.4574376831940122E-002   8.2539953353909873E-002   0.0000000000000000     
   5.6586133239993848E-002   8.8738132360251742E-002   0.0000000000000000     
   5.8523183078020027E-002   9.5095541975940223E-002   0.0000000000000000     
   6.0385526346018667E-002  0.10161218220097533        0.0000000000000000     
   6.2173163043989760E-002  0.10828805303535702        0.0000000000000000     
   8.7141454138728425E-002  0.11074660832069702        0.0000000000000000     
   8.9427387771195022E-002  0.11747280289742831        0.0000000000000000     
   9.1606421352713643E-002  0.12432651891293800        0.0000000000000000     
   9.3678554883284262E-002  0.13130775636722605        0.0000000000000000     
   9.5643788362906906E-002  0.13841651526029250        0.0000000000000000     
   8.0608452295574229E-002  0.11006965041461758        0.0000000000000000     
   8.2753445048912175E-002  0.11682167731221642        0.0000000000000000     
   8.4808190299181116E-002  0.12369953514622253        0.0000000000000000     
   8.6772688046381052E-002  0.13070322391663594        0.0000000000000000     
   8.8646938290511956E-002  0.13783274362345665        0.0000000000000000     
   7.4269403165399719E-002  0.10943423856503445        0.0000000000000000     
   7.6272708149658724E-002  0.11621050550342896        0.0000000000000000     
   7.8198268276397337E-002  0.12311228098454916        0.0000000000000000     
   8.0046083545615557E-002  0.13013956500839496        0.0000000000000000     
   8.1816153957313412E-002  0.13729235757496647        0.0000000000000000     
   6.8124306748204883E-002  0.10884037277194759        0.0000000000000000     
   6.9985177073434657E-002  0.11563928747106597        0.0000000000000000     
   7.1776655284362306E-002  0.12256475642791781        0.0000000000000000     
   7.3498741380987859E-002  0.12961677964250309        0.0000000000000000     
   7.5151435363311300E-002  0.13679535711482188        0.0000000000000000     
   6.2173163043989760E-002  0.10828805303535702        0.0000000000000000     
   6.3890851820239986E-002  0.11510802321512741        0.0000000000000000     
   6.5543351323076038E-002  0.12205696147632851        0.0000000000000000     
   6.7130661552497917E-002  0.12913486781896036        0.0000000000000000     
   6.8652782508505622E-002  0.13634174224302295        0.0000000000000000     
   9.5643788362906906E-002  0.13841651526029250        0.0000000000000000     
   9.7535111954433373E-002  0.14564257916769846        0.0000000000000000     
   9.9385515820715406E-002  0.15297573166500514        0.0000000000000000     
  0.10119499996175305       0.16041597275221250        0.0000000000000000     
  0.10296356437754629       0.16796330242932053        0.0000000000000000     
   8.8646938290511956E-002  0.13783274362345665        0.0000000000000000     
   9.0438536956279181E-002  0.14508264707191446        0.0000000000000000     
   9.2155079968388079E-002  0.15244748706723912        0.0000000000000000     
   9.3796567326838637E-002  0.15992726360943066        0.0000000000000000     
   9.5362999031630841E-002  0.16752197669848906        0.0000000000000000     
   8.1816153957313412E-002  0.13729235757496647        0.0000000000000000     
   8.3500008011959434E-002  0.14456741007503279        0.0000000000000000     
   8.5089174210022156E-002  0.15196147389936315        0.0000000000000000     
   8.6583652551501591E-002  0.15947454904795758        0.0000000000000000     
   8.7983443036397754E-002  0.16710663552081600        0.0000000000000000     
   7.5151435363311300E-002  0.13679535711482188        0.0000000000000000     
   7.6719525121474091E-002  0.14409686817705347        0.0000000000000000     
   7.8187798545617623E-002  0.15151769216137728        0.0000000000000000     
   7.9556255635741951E-002  0.15905782906779323        0.0000000000000000     
   8.0824896391847034E-002  0.16671727889630136        0.0000000000000000     
   6.8652782508505622E-002  0.13634174224302295        0.0000000000000000     
   7.0097088284823153E-002  0.14367102137797655        0.0000000000000000     
   7.1450952975174509E-002  0.15111614185328143        0.0000000000000000     
   7.2714376579559675E-002  0.15867710366893764        0.0000000000000000     
   7.3887359097978680E-002  0.16635390682494511        0.0000000000000000     
   0.0000000000000000        0.0000000000000000        0.0000000000000000     
   2.8800471016365500E-003   1.7448449659696070E-003   0.0000000000000000     
   5.8726114271348603E-003   3.8646685756354151E-003   0.0000000000000000     
   8.9776929764949324E-003   6.3594708289974235E-003   0.0000000000000000     
   1.2195291749716761E-002   9.2292517260556348E-003   0.0000000000000000     
   0.0000000000000000        0.0000000000000000        0.0000000000000000     
   2.6102884927281154E-003   1.5889963275593007E-003   0.0000000000000000     
   5.2896845884283479E-003   3.5567900713900213E-003   0.0000000000000000     
   8.0381882871006956E-003   5.9033812314921641E-003   0.0000000000000000     
   1.0855799588745163E-002   8.6287698078657254E-003   0.0000000000000000     
   0.0000000000000000        0.0000000000000000        0.0000000000000000     
   2.3400850690134495E-003   1.4590532087276412E-003   0.0000000000000000     
   4.7201688017904477E-003   3.2999211164760527E-003   0.0000000000000000     
   7.1402511983309934E-003   5.5226037232452346E-003   0.0000000000000000     
   9.6003322586350887E-003   8.1271010290351851E-003   0.0000000000000000     
   0.0000000000000000        0.0000000000000000        0.0000000000000000     
   2.0694368304925524E-003   1.3550156094746283E-003   0.0000000000000000     
   4.1640640672211595E-003   3.0940617108935063E-003   0.0000000000000000     
   6.2838817101858215E-003   5.2171383042566334E-003   0.0000000000000000     
   8.4288897593865365E-003   7.7242453895640098E-003   0.0000000000000000     
   0.0000000000000000        0.0000000000000000        0.0000000000000000     
   1.7983437771654238E-003   1.2768835298002622E-003   0.0000000000000000     
   3.6213703847204838E-003   2.9392118546423831E-003   0.0000000000000000     
   5.4690798226651799E-003   4.9869849745263622E-003   0.0000000000000000     
   7.3414720909995117E-003   7.4202028894522010E-003   0.0000000000000000     
   1.2195291749716761E-002   9.2292517260556348E-003   0.0000000000000000     
   1.5427691452799881E-002   1.2371872292763842E-002   0.0000000000000000     
   1.8577175791743811E-002   1.5685193555075850E-002   0.0000000000000000     
   2.1643744766548553E-002   1.9169215512991652E-002   0.0000000000000000     
   2.4627398377214105E-002   2.2823938166511262E-002   0.0000000000000000     
   1.0855799588745163E-002   8.6287698078657254E-003   0.0000000000000000     
   1.3689152237768955E-002   1.1650729595095418E-002   0.0000000000000000     
   1.6484879978579281E-002   1.4887034387765946E-002   0.0000000000000000     
   1.9242982811176139E-002   1.8337684185877313E-002   0.0000000000000000     
   2.1963460735559534E-002   2.2002678989429519E-002   0.0000000000000000     
   9.6003322586350887E-003   8.1271010290351851E-003   0.0000000000000000     
   1.2076836764985447E-002   1.1046121380575908E-002   0.0000000000000000     
   1.4546189499664786E-002   1.4212373124597404E-002   0.0000000000000000     
   1.7008390462673110E-002   1.7625856261099679E-002   0.0000000000000000     
   1.9463439654010411E-002   2.1286570790082716E-002   0.0000000000000000     
   8.4288897593865365E-003   7.7242453895640098E-003   0.0000000000000000     
   1.0590745034449357E-002   1.0558047649205315E-002   0.0000000000000000     
   1.2761104355000330E-002   1.3661209765570226E-002   0.0000000000000000     
   1.4939967721039456E-002   1.7033731738658742E-002   0.0000000000000000     
   1.7127335132566732E-002   2.0675613568470863E-002   0.0000000000000000     
   7.3414720909995117E-003   7.4202028894522010E-003   0.0000000000000000     
   9.2308770461606866E-003   1.0186508400983636E-002   0.0000000000000000     
   1.1129624544585911E-002   1.3233544310684409E-002   0.0000000000000000     
   1.3037714586275180E-002   1.6561310618554512E-002   0.0000000000000000     
   1.4955147171228500E-002   2.0169807324593954E-002   0.0000000000000000     
   2.4627398377214105E-002   2.2823938166511262E-002   0.0000000000000000     
   2.7532131761737647E-002   2.6672335049339763E-002   0.0000000000000000     