 <VTKFile type="UnstructuredGrid"  version="0.1"   >
 <UnstructuredGrid>
 <Piece  NumberOfPoints="           400 "  NumberOfCells="          256 ">
 <Points>
 <DataArray  type="Float64" NumberOfComponents="3"  format="ascii" >
   0.0000000000000000        0.0000000000000000        0.0000000000000000     
   6.2500000000000000E-002   0.0000000000000000        0.0000000000000000     
  0.12500000000000000        0.0000000000000000        0.0000000000000000     
  0.18750000000000000        0.0000000000000000        0.0000000000000000     
  0.25000000000000000        0.0000000000000000        0.0000000000000000     
   0.0000000000000000        6.2500000000000000E-002   0.0000000000000000     
   6.2500000000000000E-002   6.2500000000000000E-002   0.0000000000000000     
  0.12500000000000000        6.2500000000000000E-002   0.0000000000000000     
  0.18750000000000000        6.2500000000000000E-002   0.0000000000000000     
  0.25000000000000000        6.2500000000000000E-002   0.0000000000000000     
   0.0000000000000000       0.12500000000000000        0.0000000000000000     
   6.2500000000000000E-002  0.12500000000000000        0.0000000000000000     
  0.12500000000000000       0.12500000000000000        0.0000000000000000     
  0.18750000000000000       0.12500000000000000        0.0000000000000000     
  0.25000000000000000       0.12500000000000000        0.0000000000000000     
   0.0000000000000000       0.18750000000000000        0.0000000000000000     
   6.2500000000000000E-002  0.18750000000000000        0.0000000000000000     
  0.12500000000000000       0.18750000000000000        0.0000000000000000     
  0.18750000000000000       0.18750000000000000        0.0000000000000000     
  0.25000000000000000       0.18750000000000000        0.0000000000000000     
   0.0000000000000000       0.25000000000000000        0.0000000000000000     
   6.2500000000000000E-002  0.25000000000000000        0.0000000000000000     
  0.12500000000000000       0.25000000000000000        0.0000000000000000     
  0.18750000000000000       0.25000000000000000        0.0000000000000000     
  0.25000000000000000       0.25000000000000000        0.0000000000000000     
  0.25000000000000000        0.0000000000000000        0.0000000000000000     
  0.31250000000000000        0.0000000000000000        0.0000000000000000     
  0.37500000000000000        0.0000000000000000        0.0000000000000000     
  0.43750000000000000        0.0000000000000000        0.0000000000000000     
  0.50000000000000000        0.0000000000000000        0.0000000000000000     
  0.25000000000000000        6.2500000000000000E-002   0.0000000000000000     
  0.31250000000000000        6.2500000000000000E-002   0.0000000000000000     
  0.37500000000000000        6.2500000000000000E-002   0.0000000000000000     
  0.43750000000000000        6.2500000000000000E-002   0.0000000000000000     
  0.50000000000000000        6.2500000000000000E-002   0.0000000000000000     
  0.25000000000000000       0.12500000000000000        0.0000000000000000     
  0.31250000000000000       0.12500000000000000        0.0000000000000000     
  0.37500000000000000       0.12500000000000000        0.0000000000000000     
  0.43750000000000000       0.12500000000000000        0.0000000000000000     
  0.50000000000000000       0.12500000000000000        0.0000000000000000     
  0.25000000000000000       0.18750000000000000        0.0000000000000000     
  0.31250000000000000       0.18750000000000000        0.0000000000000000     
  0.37500000000000000       0.18750000000000000        0.0000000000000000     
  0.43750000000000000       0.18750000000000000        0.0000000000000000     
  0.50000000000000000       0.18750000000000000        0.0000000000000000     
  0.25000000000000000       0.25000000000000000        0.0000000000000000     
  0.31250000000000000       0.25000000000000000        0.0000000000000000     
  0.37500000000000000       0.25000000000000000        0.0000000000000000     
  0.43750000000000000       0.25000000000000000        0.0000000000000000     
  0.50000000000000000       0.25000000000000000        0.0000000000000000     
  0.50000000000000000        0.0000000000000000        0.0000000000000000     
  0.56250000000000000        0.0000000000000000        0.0000000000000000     
  0.62500000000000000        0.0000000000000000        0.0000000000000000     
  0.68750000000000000        0.0000000000000000        0.0000000000000000     
  0.75000000000000000        0.0000000000000000        0.0000000000000000     
  0.50000000000000000        6.2500000000000000E-002   0.0000000000000000     
  0.56250000000000000        6.2500000000000000E-002   0.0000000000000000     
  0.62500000000000000        6.2500000000000000E-002   0.0000000000000000     
  0.68750000000000000        6.2500000000000000E-002   0.0000000000000000     
  0.75000000000000000        6.2500000000000000E-002   0.0000000000000000     
  0.50000000000000000       0.12500000000000000        0.0000000000000000     
  0.56250000000000000       0.12500000000000000        0.0000000000000000     
  0.62500000000000000       0.12500000000000000        0.0000000000000000     
  0.68750000000000000       0.12500000000000000        0.0000000000000000     
  0.75000000000000000       0.12500000000000000        0.0000000000000000     
  0.50000000000000000       0.18750000000000000        0.0000000000000000     
  0.56250000000000000       0.18750000000000000        0.0000000000000000     
  0.62500000000000000       0.18750000000000000        0.0000000000000000     
  0.68750000000000000       0.18750000000000000        0.0000000000000000     
  0.75000000000000000       0.18750000000000000        0.0000000000000000     
  0.50000000000000000       0.25000000000000000        0.0000000000000000     
  0.56250000000000000       0.25000000000000000        0.0000000000000000     
  0.62500000000000000       0.25000000000000000        0.0000000000000000     
  0.68750000000000000       0.25000000000000000        0.0000000000000000     
  0.75000000000000000       0.25000000000000000        0.0000000000000000     
  0.75000000000000000        0.0000000000000000        0.0000000000000000     
  0.81250000000000000        0.0000000000000000        0.0000000000000000     
  0.87500000000000000        0.0000000000000000        0.0000000000000000     
  0.93750000000000000        0.0000000000000000        0.0000000000000000     
   1.0000000000000000        0.0000000000000000        0.0000000000000000     
  0.75000000000000000        6.2500000000000000E-002   0.0000000000000000     
  0.81250000000000000        6.2500000000000000E-002   0.0000000000000000     
  0.87500000000000000        6.2500000000000000E-002   0.0000000000000000     
  0.93750000000000000        6.2500000000000000E-002   0.0000000000000000     
   1.0000000000000000        6.2500000000000000E-002   0.0000000000000000     
  0.75000000000000000       0.12500000000000000        0.0000000000000000     
  0.81250000000000000       0.12500000000000000        0.0000000000000000     
  0.87500000000000000       0.12500000000000000        0.0000000000000000     
  0.93750000000000000       0.12500000000000000        0.0000000000000000     
   1.0000000000000000       0.12500000000000000        0.0000000000000000     
  0.75000000000000000       0.18750000000000000        0.0000000000000000     
  0.81250000000000000       0.18750000000000000        0.0000000000000000     
  0.87500000000000000       0.18750000000000000        0.0000000000000000     
  0.93750000000000000       0.18750000000000000        0.0000000000000000     
   1.0000000000000000       0.18750000000000000        0.0000000000000000     
  0.75000000000000000       0.25000000000000000        0.0000000000000000     
  0.81250000000000000       0.25000000000000000        0.0000000000000000     
  0.87500000000000000       0.25000000000000000        0.0000000000000000     
  0.93750000000000000       0.25000000000000000        0.0000000000000000     
   1.0000000000000000       0.25000000000000000        0.0000000000000000     
   0.0000000000000000       0.25000000000000000        0.0000000000000000     
   6.2500000000000000E-002  0.25000000000000000        0.0000000000000000     
  0.12500000000000000       0.25000000000000000        0.0000000000000000     
  0.18750000000000000       0.25000000000000000        0.0000000000000000     
  0.25000000000000000       0.25000000000000000        0.0000000000000000     
   0.0000000000000000       0.31250000000000000        0.0000000000000000     
   6.2500000000000000E-002  0.31250000000000000        0.0000000000000000     
  0.12500000000000000       0.31250000000000000        0.0000000000000000     
  0.18750000000000000       0.31250000000000000        0.0000000000000000     
  0.25000000000000000       0.31250000000000000        0.0000000000000000     
   0.0000000000000000       0.37500000000000000        0.0000000000000000     
   6.2500000000000000E-002  0.37500000000000000        0.0000000000000000     
  0.12500000000000000       0.37500000000000000        0.0000000000000000     
  0.18750000000000000       0.37500000000000000        0.0000000000000000     
  0.25000000000000000       0.37500000000000000        0.0000000000000000     
   0.0000000000000000       0.43750000000000000        0.0000000000000000     
   6.2500000000000000E-002  0.43750000000000000        0.0000000000000000     
  0.12500000000000000       0.43750000000000000        0.0000000000000000     
  0.18750000000000000       0.43750000000000000        0.0000000000000000     
  0.25000000000000000       0.43750000000000000        0.0000000000000000     
   0.0000000000000000       0.50000000000000000        0.0000000000000000     
   6.2500000000000000E-002  0.50000000000000000        0.0000000000000000     
  0.12500000000000000       0.50000000000000000        0.0000000000000000     
[...]
 <PointData>
 <DataArray  type="Float64" Name="disp" NumberOfComponents="3" format="ascii">
   0.0000000000000000        0.0000000000000000        0.0000000000000000     
   1.0683003793529619E-002   6.3625441449043970E-003   0.0000000000000000     
   2.0512651380369576E-002   1.2938040058516898E-002   0.0000000000000000     
   2.9488942760519866E-002   1.9726487740837496E-002   0.0000000000000000     
   3.7611877933980492E-002   2.6727887191866195E-002   0.0000000000000000     
   0.0000000000000000        0.0000000000000000        0.0000000000000000     
   8.1771836795115679E-003   5.0147912644639501E-003   0.0000000000000000     
   1.5995190961384149E-002   1.0733810984849625E-002   0.0000000000000000     
   2.3454021845617741E-002   1.7157059161157024E-002   0.0000000000000000     
   3.0553676332212346E-002   2.4284535793386144E-002   0.0000000000000000     
   0.0000000000000000        0.0000000000000000        0.0000000000000000     
   6.1442878124579273E-003   3.9964549760794776E-003   0.0000000000000000     
   1.2255288227670762E-002   9.0496598144917308E-003   0.0000000000000000     
   1.8333001245638501E-002   1.5159614515236756E-002   0.0000000000000000     
   2.4377426866361143E-002   2.2326319078314560E-002   0.0000000000000000     
   0.0000000000000000        0.0000000000000000        0.0000000000000000     
   4.5843161923686971E-003   3.3075352797509788E-003   0.0000000000000000     
   9.2929431792294088E-003   7.8855865474432105E-003   0.0000000000000000     
   1.4125880960582139E-002   1.3734153803076700E-002   0.0000000000000000     
   1.9083129536426879E-002   2.0853237046651433E-002   0.0000000000000000     
   0.0000000000000000        0.0000000000000000        0.0000000000000000     
   3.4972688192438763E-003   2.9480321754784544E-003   0.0000000000000000     
   7.1081558160600942E-003   7.2415911837040679E-003   0.0000000000000000     
   1.0832660990448655E-002   1.2880677024676842E-002   0.0000000000000000     
   1.4670784342409558E-002   1.9865289698396776E-002   0.0000000000000000     
   3.7611877933980492E-002   2.6727887191866195E-002   0.0000000000000000     
   4.5151465809407695E-002   3.4317664296333379E-002   0.0000000000000000     
   5.2377715295457733E-002   4.2871244938969419E-002   0.0000000000000000     
   5.9290626392130598E-002   5.2388629119774321E-002   0.0000000000000000     
   6.5890199099426297E-002   6.2869816838748080E-002   0.0000000000000000     
   3.0553676332212346E-002   2.4284535793386144E-002   0.0000000000000000     
   3.7294458814318449E-002   3.2195675919124013E-002   0.0000000000000000     
   4.3676673685086528E-002   4.0969914575957646E-002   0.0000000000000000     
   4.9700320944516582E-002   5.0607251763887043E-002   0.0000000000000000     
   5.5365400592608624E-002   6.1107687482912218E-002   0.0000000000000000     
   2.4377426866361143E-002   2.2326319078314560E-002   0.0000000000000000     
   3.0226215783704331E-002   3.0424635673708410E-002   0.0000000000000000     
   3.5717018691533695E-002   3.9329426471401592E-002   0.0000000000000000     
   4.0849835589849240E-002   4.9040691471394088E-002   0.0000000000000000     
   4.5624666478650960E-002   5.9558430673685922E-002   0.0000000000000000     
   1.9083129536426879E-002   2.0853237046651433E-002   0.0000000000000000     
   2.3946736717565344E-002   2.9004543560086575E-002   0.0000000000000000     
   2.8498750314799242E-002   3.7949780625301237E-002   0.0000000000000000     
   3.2739170328128564E-002   4.7688948242295449E-002   0.0000000000000000     
   3.6667996757553313E-002   5.8222046411069199E-002   0.0000000000000000     
   1.4670784342409558E-002   1.9865289698396776E-002   0.0000000000000000     
   1.8456021615901496E-002   2.7935399578258493E-002   0.0000000000000000     
   2.2021868554883167E-002   3.6830977037656601E-002   0.0000000000000000     
   2.5368325159354561E-002   4.6552022076591135E-002   0.0000000000000000     
   2.8495391429315682E-002   5.7098534695062063E-002   0.0000000000000000     
   6.5890199099426297E-002   6.2869816838748080E-002   0.0000000000000000     
   7.2156118213746429E-002   7.4172159748356739E-002   0.0000000000000000     
   7.8068068531492590E-002   8.6153009501066344E-002   0.0000000000000000     
   8.3626050052664810E-002   9.8812366096876880E-002   0.0000000000000000     
   8.8830062777263047E-002  0.11215022953578836        0.0000000000000000     
   5.5365400592608624E-002   6.1107687482912218E-002   0.0000000000000000     
   6.0691899455884511E-002   7.2399724532225249E-002   0.0000000000000000     
   6.5699804360866115E-002   8.4411865711018247E-002   0.0000000000000000     
   7.0389115307553443E-002   9.7144111019291213E-002   0.0000000000000000     
   7.4759832295946488E-002  0.11059646045704416        0.0000000000000000     
   4.5624666478650960E-002   5.9558430673685922E-002   0.0000000000000000     
   5.0078800601502542E-002   7.0847850813012175E-002   0.0000000000000000     
   5.4249527201967636E-002   8.2874158624107991E-002   0.0000000000000000     
   5.8136846280046291E-002   9.5637354106973368E-002   0.0000000000000000     
   6.1740757835738472E-002  0.10913743726160827        0.0000000000000000     
   3.6667996757553313E-002   5.8222046411069199E-002   0.0000000000000000     
   4.0316821650600521E-002   6.9516538590717547E-002   0.0000000000000000     
   4.3717237054797194E-002   8.1539888240335590E-002   0.0000000000000000     
   4.6869242970143346E-002   9.4292095359923292E-002   0.0000000000000000     
   4.9772839396638971E-002  0.10777315994948070        0.0000000000000000     
   2.8495391429315682E-002   5.7098534695062063E-002   0.0000000000000000     
   3.1405962603178447E-002   6.8405787865341364E-002   0.0000000000000000     
   3.4102933919354754E-002   8.0409054559701015E-002   0.0000000000000000     
   3.6586305377844609E-002   9.3108334778141039E-002   0.0000000000000000     
   3.8856076978648013E-002  0.10650362852066142        0.0000000000000000     
   8.8830062777263047E-002  0.11215022953578836        0.0000000000000000     
   9.3809950987455842E-002  0.12651702912327567        0.0000000000000000     
   9.8695558965411698E-002  0.14226319416481376        0.0000000000000000     
  0.10348688671113057       0.15938872466040255        0.0000000000000000     
  0.10818393422461252       0.17789362061004213        0.0000000000000000     
   7.4759832295946488E-002  0.11059646045704416        0.0000000000000000     
   7.8875734352160637E-002  0.12497127865805364        0.0000000000000000     
   8.2800600502311278E-002  0.14047093025609630        0.0000000000000000     
   8.6534430746398425E-002  0.15709541525117204        0.0000000000000000     
   9.0077225084422022E-002  0.17484473364328096        0.0000000000000000     
   6.1740757835738472E-002  0.10913743726160827        0.0000000000000000     
   6.5089349840254579E-002  0.12345499976769561        0.0000000000000000     
   6.8210710264804991E-002  0.13867063330491816        0.0000000000000000     
   7.1104839109389750E-002  0.15478433787327603        0.0000000000000000     
   7.3771736374008828E-002  0.17179611347276916        0.0000000000000000     
   4.9772839396638971E-002  0.10777315994948070        0.0000000000000000     
   5.2450797451737613E-002  0.12196819245220149        0.0000000000000000     
   5.4925888252892817E-002  0.13686230331127947        0.0000000000000000     
   5.7198111800104583E-002  0.15245549252671453        0.0000000000000000     
   5.9267468093372890E-002  0.16874776009850678        0.0000000000000000     
   3.8856076978648013E-002  0.10650362852066142        0.0000000000000000     
   4.0960077186609781E-002  0.12051085671157137        0.0000000000000000     
   4.2946134466574748E-002  0.13504594027518008        0.0000000000000000     
   4.4814248818542901E-002  0.15010887921148755        0.0000000000000000     
   4.6564420242514240E-002  0.16569967352049381        0.0000000000000000     
   0.0000000000000000        0.0000000000000000        0.0000000000000000     
   3.4972688192438763E-003   2.9480321754784544E-003   0.0000000000000000     
   7.1081558160600942E-003   7.2415911837040679E-003   0.0000000000000000     
   1.0832660990448655E-002   1.2880677024676842E-002   0.0000000000000000     
   1.4670784342409558E-002   1.9865289698396776E-002   0.0000000000000000     
   0.0000000000000000        0.0000000000000000        0.0000000000000000     
   2.6407505808091723E-003   2.7775867182644829E-003   0.0000000000000000     
   5.3168896871563665E-003   6.9056293231301684E-003   0.0000000000000000     
   8.0284173190415826E-003   1.2384127814597058E-002   0.0000000000000000     
   1.0775333476464824E-002   1.9213082192665147E-002   0.0000000000000000     
   0.0000000000000000        0.0000000000000000        0.0000000000000000     
   1.7723663647902937E-003   2.6558399631116439E-003   0.0000000000000000     
   3.5351083415117780E-003   6.6656565655773764E-003   0.0000000000000000     
   5.2882259301644538E-003   1.2029449807397202E-002   0.0000000000000000     
   7.0317191307483189E-003   1.8747219688571112E-002   0.0000000000000000     
   0.0000000000000000        0.0000000000000000        0.0000000000000000     
   8.9211617118723917E-004   2.5827919100199362E-003   0.0000000000000000     
   1.7628117791263275E-003   6.5216729110456947E-003   0.0000000000000000     
   2.6120868238172635E-003   1.1816643003077273E-002   0.0000000000000000     
   3.4399413052600501E-003   1.8467702186114678E-002   0.0000000000000000     
   0.0000000000000000        0.0000000000000000        0.0000000000000000     
   9.5409791178724390E-018   2.5584425589893611E-003   0.0000000000000000     
   1.4745149545802860E-017   6.4736783595351196E-003   0.0000000000000000     
   1.6263032587282567E-017   1.1745707401637280E-002   0.0000000000000000     
   1.3877787807814457E-017   1.8374529685295838E-002   0.0000000000000000     
   1.4670784342409558E-002   1.9865289698396776E-002   0.0000000000000000     
   1.8456021615901496E-002   2.7935399578258493E-002   0.0000000000000000     
   2.2021868554883167E-002   3.6830977037656601E-002   0.0000000000000000     
   2.5368325159354561E-002   4.6552022076591135E-002   0.0000000000000000     
   2.8495391429315682E-002   5.7098534695062063E-002   0.0000000000000000     
   1.0775333476464824E-002   1.9213082192665147E-002   0.0000000000000000     
   1.3480270425337941E-002   2.7153438401818684E-002   0.0000000000000000     
   1.6065860431572800E-002   3.5966142386541930E-002   0.0000000000000000     
   1.8532103495169400E-002   4.5651194146834863E-002   0.0000000000000000     
   2.0878999616127741E-002   5.6208593682697483E-002   0.0000000000000000     
   7.0317191307483189E-003   1.8747219688571112E-002   0.0000000000000000     
   8.7456830924998417E-003   2.6594894704361671E-002   0.0000000000000000     
   1.0410212964655491E-002   3.5348403350031421E-002   0.0000000000000000     
   1.2025308747215264E-002   4.5007745625580353E-002   0.0000000000000000     
   1.3590970440179158E-002   5.5572921531008491E-002   0.0000000000000000     
   3.4399413052600501E-003   1.8467702186114678E-002   0.0000000000000000     
   4.2522596173871999E-003   2.6259768485887437E-002   0.0000000000000000     
   5.0549261541312316E-003   3.4977759928125081E-002   0.0000000000000000     
   5.8479409154921433E-003   4.4621676512827627E-002   0.0000000000000000     
   6.6313039014699376E-003   5.5191518239995054E-002   0.0000000000000000     
   1.3877787807814457E-017   1.8374529685295838E-002   0.0000000000000000     
   1.4203048459560108E-017   2.6148059746395991E-002   0.0000000000000000     
   2.4828229749918052E-017   3.4854212120822937E-002   0.0000000000000000     
   4.4804654777963471E-017   4.4492986808576669E-002   0.0000000000000000     
   7.3725747729014302E-017   5.5064383809657197E-002   0.0000000000000000     
   2.8495391429315682E-002   5.7098534695062063E-002   0.0000000000000000     
   3.1405962603178447E-002   6.8405787865341364E-002   0.0000000000000000     
   3.4102933919354754E-002   8.0409054559701015E-002   0.0000000000000000     
   3.6586305377844609E-002   9.3108334778141039E-002   0.0000000000000000     
   3.8856076978648013E-002  0.10650362852066142        0.0000000000000000     
   2.0878999616127741E-002   5.6208593682697483E-002   0.0000000000000000     
   2.3079115618718227E-002   6.7530376635538986E-002   0.0000000000000000     
   2.5105018327211268E-002   7.9508578646768580E-002   0.0000000000000000     
   2.6956707741606859E-002   9.2143199716386237E-002   0.0000000000000000     
   2.8634183861905006E-002  0.10543423984439194        0.0000000000000000     
   1.3590970440179158E-002   5.5572921531008491E-002   0.0000000000000000     
   1.5069172856701767E-002   6.6905082899965870E-002   0.0000000000000000     
   1.6421890809937671E-002   7.8865381566102524E-002   0.0000000000000000     
   1.7649124299886874E-002   9.1453817529418474E-002   0.0000000000000000     
   1.8750873326549372E-002  0.10467039078991373        0.0000000000000000     
   6.6313039014699376E-003   5.5191518239995054E-002   0.0000000000000000     
   7.3761343171290595E-003   6.6529906658621948E-002   0.0000000000000000     
   8.0535513675339641E-003   7.8479463317702863E-002   0.0000000000000000     
   8.6635550526846482E-003   9.1040188217237819E-002   0.0000000000000000     
   9.2061453725811142E-003  0.10421208135722677        0.0000000000000000     
   7.3725747729014302E-017   5.5064383809657197E-002   0.0000000000000000     
   1.0972125985553305E-016   6.6404847911507262E-002   0.0000000000000000     
   1.4788517632702280E-016   7.8350823901569583E-002   0.0000000000000000     
   1.8702487475374951E-016   9.0902311779844203E-002   0.0000000000000000     
   2.3158558404290375E-016  0.10405931154633107        0.0000000000000000     
   3.8856076978648013E-002  0.10650362852066142        0.0000000000000000     
   4.0960077186609781E-002  0.12051085671157137        0.0000000000000000     
   4.2946134466574748E-002  0.13504594027518008        0.0000000000000000     
   4.4814248818542901E-002  0.15010887921148755        0.0000000000000000     
   4.6564420242514240E-002  0.16569967352049381        0.0000000000000000     
   2.8634183861905006E-002  0.10543423984439194        0.0000000000000000     
   3.0212469209871733E-002  0.11924858175252297        0.0000000000000000     
   3.1766586307273088E-002  0.13345310816251660        0.0000000000000000     
   3.3296535154109054E-002  0.14804781907437278        0.0000000000000000     
   3.4802315750379641E-002  0.16303271448809153        0.0000000000000000     
   1.8750873326549372E-002  0.10467039078991373        0.0000000000000000     
   1.9803253686524136E-002  0.11834695678177412        0.0000000000000000     
   2.0882381176410138E-002  0.13231537093918549        0.0000000000000000     
   2.1988255796207373E-002  0.14657563326214793        0.0000000000000000     
   2.3120877545915838E-002  0.16112774375066136        0.0000000000000000     
   9.2061453725811142E-003  0.10421208135722677        0.0000000000000000     
   9.7324306165669904E-003  0.11780598179932476        0.0000000000000000     
   1.0293519073985902E-002  0.13163272860518688        0.0000000000000000     
   1.0889410744837857E-002  0.14569232177481306        0.0000000000000000     
   1.1520105629122849E-002  0.15998476130820327        0.0000000000000000     
   2.3158558404290375E-016  0.10405931154633107        0.0000000000000000     
   2.9056618222611519E-016  0.11762565680517496        0.0000000000000000     
   3.8402440949436567E-016  0.13140518116052061        0.0000000000000000     
   5.0605136400760919E-016  0.14539788461236805        0.0000000000000000     
   6.6266436782314031E-016  0.15960376716071725        0.0000000000000000     
   0.0000000000000000        0.0000000000000000        0.0000000000000000     
   9.5409791178724390E-018   2.5584425589893611E-003   0.0000000000000000     
   1.4745149545802860E-017   6.4736783595351196E-003   0.0000000000000000     
   1.6263032587282567E-017   1.1745707401637280E-002   0.0000000000000000     
   1.3877787807814457E-017   1.8374529685295838E-002   0.0000000000000000     
   0.0000000000000000        0.0000000000000000        0.0000000000000000     
  -8.9211617118721955E-004   2.5827919100199180E-003   0.0000000000000000     
  -1.7628117791262973E-003   6.5216729110456582E-003   0.0000000000000000     
  -2.6120868238172323E-003   1.1816643003077219E-002   0.0000000000000000     
  -3.4399413052600249E-003   1.8467702186114602E-002   0.0000000000000000     
   0.0000000000000000        0.0000000000000000        0.0000000000000000     
  -1.7723663647902727E-003   2.6558399631116097E-003   0.0000000000000000     
  -3.5351083415117463E-003   6.6656565655773088E-003   0.0000000000000000     
  -5.2882259301644235E-003   1.2029449807397100E-002   0.0000000000000000     
  -7.0317191307483007E-003   1.8747219688570980E-002   0.0000000000000000     
   0.0000000000000000        0.0000000000000000        0.0000000000000000     
  -2.6407505808091489E-003   2.7775867182644356E-003   0.0000000000000000     
  -5.3168896871563353E-003   6.9056293231300756E-003   0.0000000000000000     
  -8.0284173190415566E-003   1.2384127814596919E-002   0.0000000000000000     
  -1.0775333476464815E-002   1.9213082192664970E-002   0.0000000000000000     
   0.0000000000000000        0.0000000000000000        0.0000000000000000     
  -3.4972688192438494E-003   2.9480321754783946E-003   0.0000000000000000     
  -7.1081558160600612E-003   7.2415911837039560E-003   0.0000000000000000     
  -1.0832660990448635E-002   1.2880677024676683E-002   0.0000000000000000     
  -1.4670784342409570E-002   1.9865289698396578E-002   0.0000000000000000     
   1.3877787807814457E-017   1.8374529685295838E-002   0.0000000000000000     
   1.4203048459560108E-017   2.6148059746395991E-002   0.0000000000000000     
   2.4828229749918052E-017   3.4854212120822937E-002   0.0000000000000000     
   4.4804654777963471E-017   4.4492986808576669E-002   0.0000000000000000     
   7.3725747729014302E-017   5.5064383809657197E-002   0.0000000000000000     
  -3.4399413052600249E-003   1.8467702186114602E-002   0.0000000000000000     
  -4.2522596173871757E-003   2.6259768485887340E-002   0.0000000000000000     
  -5.0549261541311882E-003   3.4977759928124970E-002   0.0000000000000000     
  -5.8479409154920583E-003   4.4621676512827495E-002   0.0000000000000000     
  -6.6313039014697945E-003   5.5191518239994915E-002   0.0000000000000000     
  -7.0317191307483007E-003   1.8747219688570980E-002   0.0000000000000000     
  -8.7456830924998331E-003   2.6594894704361501E-002   0.0000000000000000     
  -1.0410212964655462E-002   3.5348403350031213E-002   0.0000000000000000     
  -1.2025308747215196E-002   4.5007745625580117E-002   0.0000000000000000     
  -1.3590970440179029E-002   5.5572921531008207E-002   0.0000000000000000     
  -1.0775333476464815E-002   1.9213082192664970E-002   0.0000000000000000     
  -1.3480270425337951E-002   2.7153438401818469E-002   0.0000000000000000     
  -1.6065860431572796E-002   3.5966142386541652E-002   0.0000000000000000     
  -1.8532103495169362E-002   4.5651194146834530E-002   0.0000000000000000     
  -2.0878999616127630E-002   5.6208593682697094E-002   0.0000000000000000     
  -1.4670784342409570E-002   1.9865289698396578E-002   0.0000000000000000     
  -1.8456021615901538E-002   2.7935399578258240E-002   0.0000000000000000     
  -2.2021868554883198E-002   3.6830977037656296E-002   0.0000000000000000     
  -2.5368325159354551E-002   4.6552022076590732E-002   0.0000000000000000     
  -2.8495391429315606E-002   5.7098534695061549E-002   0.0000000000000000     
   7.3725747729014302E-017   5.5064383809657197E-002   0.0000000000000000     
   1.0972125985553305E-016   6.6404847911507262E-002   0.0000000000000000     