 <VTKFile type="UnstructuredGrid"  version="0.1"   >
 <UnstructuredGrid>
 <Piece  NumberOfPoints="          1600 "  NumberOfCells="         1024 ">
 <Points>
 <DataArray  type="Float64" NumberOfComponents="3"  format="ascii" >
   0.0000000000000000        0.0000000000000000        0.0000000000000000     
   3.1250000000000000E-002   0.0000000000000000        0.0000000000000000     
   6.2500000000000000E-002   0.0000000000000000        0.0000000000000000     
   9.3750000000000000E-002   0.0000000000000000        0.0000000000000000     
  0.12500000000000000        0.0000000000000000        0.0000000000000000     
   0.0000000000000000        3.1250000000000000E-002   0.0000000000000000     
   3.1250000000000000E-002   3.1250000000000000E-002   0.0000000000000000     
   6.2500000000000000E-002   3.1250000000000000E-002   0.0000000000000000     
   9.3750000000000000E-002   3.1250000000000000E-002   0.0000000000000000     
  0.12500000000000000        3.1250000000000000E-002   0.0000000000000000     
   0.0000000000000000        6.2500000000000000E-002   0.0000000000000000     
   3.1250000000000000E-002   6.2500000000000000E-002   0.0000000000000000     
   6.2500000000000000E-002   6.2500000000000000E-002   0.0000000000000000     
   9.3750000000000000E-002   6.2500000000000000E-002   0.0000000000000000     
  0.12500000000000000        6.2500000000000000E-002   0.0000000000000000     
   0.0000000000000000        9.3750000000000000E-002   0.0000000000000000     
   3.1250000000000000E-002   9.3750000000000000E-002   0.0000000000000000     
   6.2500000000000000E-002   9.3750000000000000E-002   0.0000000000000000     
   9.3750000000000000E-002   9.3750000000000000E-002   0.0000000000000000     
  0.12500000000000000        9.3750000000000000E-002   0.0000000000000000     
   0.0000000000000000       0.12500000000000000        0.0000000000000000     
   3.1250000000000000E-002  0.12500000000000000        0.0000000000000000     
   6.2500000000000000E-002  0.12500000000000000        0.0000000000000000     
   9.3750000000000000E-002  0.12500000000000000        0.0000000000000000     
  0.12500000000000000       0.12500000000000000        0.0000000000000000     
  0.12500000000000000        0.0000000000000000        0.0000000000000000     
  0.15625000000000000        0.0000000000000000        0.0000000000000000     
  0.18750000000000000        0.0000000000000000        0.0000000000000000     
  0.21875000000000000        0.0000000000000000        0.0000000000000000     
  0.25000000000000000        0.0000000000000000        0.0000000000000000     
  0.12500000000000000        3.1250000000000000E-002   0.0000000000000000     
  0.15625000000000000        3.1250000000000000E-002   0.0000000000000000     
  0.18750000000000000        3.1250000000000000E-002   0.0000000000000000     
  0.21875000000000000        3.1250000000000000E-002   0.0000000000000000     
  0.25000000000000000        3.1250000000000000E-002   0.0000000000000000     
  0.12500000000000000        6.2500000000000000E-002   0.0000000000000000     
  0.15625000000000000        6.2500000000000000E-002   0.0000000000000000     
  0.18750000000000000        6.2500000000000000E-002   0.0000000000000000     
  0.21875000000000000        6.2500000000000000E-002   0.0000000000000000     
  0.25000000000000000        6.2500000000000000E-002   0.0000000000000000     
  0.12500000000000000        9.3750000000000000E-002   0.0000000000000000     
  0.15625000000000000        9.3750000000000000E-002   0.0000000000000000     
  0.18750000000000000        9.3750000000000000E-002   0.0000000000000000     
  0.21875000000000000        9.3750000000000000E-002   0.0000000000000000     
  0.25000000000000000        9.3750000000000000E-002   0.0000000000000000     
  0.12500000000000000       0.12500000000000000        0.0000000000000000     
  0.15625000000000000       0.12500000000000000        0.0000000000000000     
  0.18750000000000000       0.12500000000000000        0.0000000000000000     
  0.21875000000000000       0.12500000000000000        0.0000000000000000     
  0.25000000000000000       0.12500000000000000        0.0000000000000000     
  0.25000000000000000        0.0000000000000000        0.0000000000000000     
  0.28125000000000000        0.0000000000000000        0.0000000000000000     
  0.31250000000000000        0.0000000000000000        0.0000000000000000     
  0.34375000000000000        0.0000000000000000        0.0000000000000000     
  0.37500000000000000        0.0000000000000000        0.0000000000000000     
  0.25000000000000000        3.1250000000000000E-002   0.0000000000000000     
  0.28125000000000000        3.1250000000000000E-002   0.0000000000000000     
  0.31250000000000000        3.1250000000000000E-002   0.0000000000000000     
  0.34375000000000000        3.1250000000000000E-002   0.0000000000000000     
  0.37500000000000000        3.1250000000000000E-002   0.0000000000000000     
  0.25000000000000000        6.2500000000000000E-002   0.0000000000000000     
  0.28125000000000000        6.2500000000000000E-002   0.0000000000000000     
  0.31250000000000000        6.2500000000000000E-002   0.0000000000000000     
  0.34375000000000000        6.2500000000000000E-002   0.0000000000000000     
  0.37500000000000000        6.2500000000000000E-002   0.0000000000000000     
  0.25000000000000000        9.3750000000000000E-002   0.0000000000000000     
  0.28125000000000000        9.3750000000000000E-002   0.0000000000000000     
  0.31250000000000000        9.3750000000000000E-002   0.0000000000000000     
  0.34375000000000000        9.3750000000000000E-002   0.0000000000000000     
  0.37500000000000000        9.3750000000000000E-002   0.0000000000000000     
  0.25000000000000000       0.12500000000000000        0.0000000000000000     
  0.28125000000000000       0.12500000000000000        0.0000000000000000     
  0.31250000000000000       0.12500000000000000        0.0000000000000000     
  0.34375000000000000       0.12500000000000000        0.0000000000000000     
  0.37500000000000000       0.12500000000000000        0.0000000000000000     
  0.37500000000000000        0.0000000000000000        0.0000000000000000     
  0.40625000000000000        0.0000000000000000        0.0000000000000000     
  0.43750000000000000        0.0000000000000000        0.0000000000000000     
  0.46875000000000000        0.0000000000000000        0.0000000000000000     
  0.50000000000000000        0.0000000000000000        0.0000000000000000     
  0.37500000000000000        3.1250000000000000E-002   0.0000000000000000     
  0.40625000000000000        3.1250000000000000E-002   0.0000000000000000     
  0.43750000000000000        3.1250000000000000E-002   0.0000000000000000     
  0.46875000000000000        3.1250000000000000E-002   0.0000000000000000     
  0.50000000000000000        3.1250000000000000E-002   0.0000000000000000     
  0.37500000000000000        6.2500000000000000E-002   0.0000000000000000     
  0.40625000000000000        6.2500000000000000E-002   0.0000000000000000     
  0.43750000000000000        6.2500000000000000E-002   0.0000000000000000     
  0.46875000000000000        6.2500000000000000E-002   0.0000000000000000     
  0.50000000000000000        6.2500000000000000E-002   0.0000000000000000     
  0.37500000000000000        9.3750000000000000E-002   0.0000000000000000     
  0.40625000000000000        9.3750000000000000E-002   0.0000000000000000     
  0.43750000000000000        9.3750000000000000E-002   0.0000000000000000     
  0.46875000000000000        9.3750000000000000E-002   0.0000000000000000     
  0.50000000000000000        9.3750000000000000E-002   0.0000000000000000     
  0.37500000000000000       0.12500000000000000        0.0000000000000000     
  0.40625000000000000       0.12500000000000000        0.0000000000000000     
  0.43750000000000000       0.12500000000000000        0.0000000000000000     
  0.46875000000000000       0.12500000000000000        0.0000000000000000     
  0.50000000000000000       0.12500000000000000        0.0000000000000000     
  0.50000000000000000        0.0000000000000000        0.0000000000000000     
  0.53125000000000000        0.0000000000000000        0.0000000000000000     
  0.56250000000000000        0.0000000000000000        0.0000000000000000     
  0.59375000000000000        0.0000000000000000        0.0000000000000000     
  0.62500000000000000        0.0000000000000000        0.0000000000000000     
  0.50000000000000000        3.1250000000000000E-002   0.0000000000000000     
  0.53125000000000000        3.1250000000000000E-002   0.0000000000000000     
  0.56250000000000000        3.1250000000000000E-002   0.0000000000000000     
  0.59375000000000000        3.1250000000000000E-002   0.0000000000000000     
  0.62500000000000000        3.1250000000000000E-002   0.0000000000000000     
  0.50000000000000000        6.2500000000000000E-002   0.0000000000000000     
  0.53125000000000000        6.2500000000000000E-002   0.0000000000000000     
  0.56250000000000000        6.2500000000000000E-002   0.0000000000000000     
  0.59375000000000000        6.2500000000000000E-002   0.0000000000000000     
  0.62500000000000000        6.2500000000000000E-002   0.0000000000000000     
  0.50000000000000000        9.3750000000000000E-002   0.0000000000000000     
  0.53125000000000000        9.3750000000000000E-002   0.0000000000000000     
  0.56250000000000000        9.3750000000000000E-002   0.0000000000000000     
  0.59375000000000000        9.3750000000000000E-002   0.0000000000000000     
  0.62500000000000000        9.3750000000000000E-002   0.0000000000000000     
  0.50000000000000000       0.12500000000000000        0.0000000000000000     
  0.53125000000000000       0.12500000000000000        0.0000000000000000     
  0.56250000000000000       0.12500000000000000        0.0000000000000000     
[...]
 <PointData>
 <DataArray  type="Float64" Name="disp" NumberOfComponents="3" format="ascii">
   0.0000000000000000        0.0000000000000000        0.0000000000000000     
  -16.053487086237485       -22.277655534548408        0.0000000000000000     
  -30.354300925372236       0.60654114334009535        0.0000000000000000     
  -42.902441517404242        68.652590033665504        0.0000000000000000     
  -53.697908862333520        181.86049113642784        0.0000000000000000     
   0.0000000000000000        0.0000000000000000        0.0000000000000000     
  -29.646583612556608        14.442542283089676        0.0000000000000000     
  -52.362127795072475        43.446262329990468        0.0000000000000000     
  -68.146632547547597        87.011160140702373        0.0000000000000000     
  -77.000097869982000        145.13723571522542        0.0000000000000000     
   0.0000000000000000        0.0000000000000000        0.0000000000000000     
  -37.494564487933538        38.692230494643411        0.0000000000000000     
  -66.481458645919218        73.216653430065804        0.0000000000000000     
  -86.960682473957050        103.57326880626721        0.0000000000000000     
  -98.932235972046996        129.76207662324757        0.0000000000000000     
   0.0000000000000000        0.0000000000000000        0.0000000000000000     
  -39.597429712368282        50.471409100112787        0.0000000000000000     
  -72.712293477912468        89.917714443566112        0.0000000000000000     
  -99.344591296632544        118.33891603035994        0.0000000000000000     
  -119.49432316852851        135.73501386049429        0.0000000000000000     
   0.0000000000000000        0.0000000000000000        0.0000000000000000     
  -35.955179285860851        49.780078099497828        0.0000000000000000     
  -71.054632291052229        93.549445370491370        0.0000000000000000     
  -105.29835901557414        131.30810181298062        0.0000000000000000     
  -138.68635945942654        163.05604742696562        0.0000000000000000     
  -53.697908862333520        181.86049113642784        0.0000000000000000     
  -74.152005754885622        275.07968152328260        0.0000000000000000     
  -115.67603498978610        283.15959826588556        0.0000000000000000     
  -178.26999656703495        206.10024136423652        0.0000000000000000     
  -261.93389048663221        43.901610818335598        0.0000000000000000     
  -77.000097869982000        145.13723571522542        0.0000000000000000     
  -95.644129135768836        197.41729620377743        0.0000000000000000     
  -140.80033171830127        223.44414875657628        0.0000000000000000     
  -212.46870561757925        223.21779337362202        0.0000000000000000     
  -310.64925083360293        196.73823005491460        0.0000000000000000     
  -98.932235972046996        129.76207662324757        0.0000000000000000     
  -120.18350385611404        158.49576621485880        0.0000000000000000     
  -168.50187084208309        196.48702691495285        0.0000000000000000     
  -243.88733692995424        243.73585872352962        0.0000000000000000     
  -346.33990211972736        300.24226164058916        0.0000000000000000     
  -119.49432316852851        135.73501386049429        0.0000000000000000     
  -147.77012991592127        158.31509155652682        0.0000000000000000     
  -198.78065236113170        202.28823274101518        0.0000000000000000     
  -272.52589050415986        267.65443741395933        0.0000000000000000     
  -369.00584434500576        354.41370557535930        0.0000000000000000     
  -138.68635945942654        163.05604742696562        0.0000000000000000     
  -178.40400731519054        196.87527222878148        0.0000000000000000     
  -231.63667627544703        240.84776623476336        0.0000000000000000     
  -298.38436634019610        294.97352944491115        0.0000000000000000     
  -378.64707750943774        359.25256185922507        0.0000000000000000     
  -261.93389048663221        43.901610818335598        0.0000000000000000     
  -326.40013956475354       -51.033596832831492        0.0000000000000000     
  -331.40116661757475        73.697314949721090        0.0000000000000000     
  -276.93697164509558        418.09434616599333        0.0000000000000000     
  -163.00755464731634        982.15749681598516        0.0000000000000000     
  -310.64925083360293        196.73823005491460        0.0000000000000000     
  -389.88413983990301        192.82825546936976        0.0000000000000000     
  -404.71554511001045        260.31066628590310        0.0000000000000000     
  -355.14346664392531        399.18546250451465        0.0000000000000000     
  -241.16790444164758        609.45264412520442        0.0000000000000000     
  -346.33990211972736        300.24226164058916        0.0000000000000000     
  -432.25956649300150        350.62551744769320        0.0000000000000000     
  -458.04633013137578        379.50490792640346        0.0000000000000000     
  -423.70019303485014        386.88043307671984        0.0000000000000000     
  -329.22115520342459        372.75209289864245        0.0000000000000000     
  -369.00584434500576        354.41370557535930        0.0000000000000000     
  -453.52641952404935        422.35818910213902        0.0000000000000000     
  -491.39352168167079        431.28003987122219        0.0000000000000000     
  -482.60715081787026        381.17925788260891        0.0000000000000000     
  -427.16730693264748        272.05584313629902        0.0000000000000000     
  -378.64707750943774        359.25256185922507        0.0000000000000000     
  -453.68469893304609        408.02627043270701        0.0000000000000000     
  -504.75711976089536        415.63606212035927        0.0000000000000000     
  -531.86433999298526        382.08193692218163        0.0000000000000000     
  -535.00635962931619        307.36389483817425        0.0000000000000000     
  -163.00755464731634        982.15749681598516        0.0000000000000000     
  -97.069963264956073        1415.3803637100984        0.0000000000000000     
  -186.58124513873412        1367.2565436587356        0.0000000000000000     
  -431.54140026865048        837.78603666189633        0.0000000000000000     
  -831.95042865470509       -173.03115728041939        0.0000000000000000     
  -241.16790444164758        609.45264412520442        0.0000000000000000     
  -163.52686675892193        797.55940750271384        0.0000000000000000     
  -222.95836185149324        869.95294899178464        0.0000000000000000     
  -419.46238971936151        826.63326859241624        0.0000000000000000     
  -753.03895036252675        667.60036630460945        0.0000000000000000     
  -329.22115520342459        372.75209289864245        0.0000000000000000     
  -260.41308280877786        403.44511719791115        0.0000000000000000     
  -303.07984202258871        545.28473578026592        0.0000000000000000     
  -457.22143284485702        798.27094864570665        0.0000000000000000     
  -722.83785527558291        1162.4037557942336        0.0000000000000000     
  -427.16730693264748        272.05584313629902        0.0000000000000000     
  -387.72861141452381        233.03749279569016        0.0000000000000000     
  -426.94568565202030        393.25190402417962        0.0000000000000000     
  -544.81852964513700        752.69907682176745        0.0000000000000000     
  -741.34714339387392        1311.3790111884537        0.0000000000000000     
  -535.00635962931619        307.36389483817425        0.0000000000000000     
  -545.47345257615984        286.33653429605101        0.0000000000000000     
  -594.55589273978831        413.85445372352558        0.0000000000000000     
  -682.25368012020169        689.91765312059852        0.0000000000000000     
  -808.56681471739978        1114.5261324872690        0.0000000000000000     
  -831.95042865470509       -173.03115728041939        0.0000000000000000     
  -1194.4590634565382       -1167.7140601019569        0.0000000000000000     
  -1325.7180378337903       -1648.7816937364610        0.0000000000000000     
  -1225.7273517864608       -1616.2340581839321        0.0000000000000000     
  -894.48700531455040       -1070.0711534443701        0.0000000000000000     
  -753.03895036252675        667.60036630460945        0.0000000000000000     
  -1053.6945039186403        461.38016354543856        0.0000000000000000     
  -1151.4355105253546        276.49858173197987        0.0000000000000000     
  -1046.2619701826691        112.95562086423242        0.0000000000000000     
  -738.17388289058385       -29.248719057802759        0.0000000000000000     
  -722.83785527558291        1162.4037557942336        0.0000000000000000     
  -958.38523477167303        1438.6324891706392        0.0000000000000000     
  -1022.3196967900340        1427.9064807197171        0.0000000000000000     
  -914.64124133066593        1130.2257304414670        0.0000000000000000     
  -635.34986839356839        545.59023833588856        0.0000000000000000     
  -741.34714339387392        1311.3790111884537        0.0000000000000000     
  -908.53125601563625        1764.0429167736459        0.0000000000000000     
  -938.37059662782860        1805.4420032267515        0.0000000000000000     
  -830.86516523045134        1435.5762705477709        0.0000000000000000     
  -586.01496182350434        654.44571873670429        0.0000000000000000     
  -808.56681471739978        1114.5261324872690        0.0000000000000000     
  -904.13256765052972        1437.6114463544573        0.0000000000000000     
  -899.58821003873811        1409.1051492530826        0.0000000000000000     
  -794.93374188202552        1029.0072411831445        0.0000000000000000     
  -590.16916318039148        297.31772214464377        0.0000000000000000     
  -894.48700531455040       -1070.0711534443701        0.0000000000000000     
  -758.90282864329959       -357.95716997325422        0.0000000000000000     
  -1245.8806519979496        172.44370177393603        0.0000000000000000     
  -2355.4204753785007        521.13146179720093        0.0000000000000000     
  -4087.5222987849515        688.10611009654019        0.0000000000000000     
  -738.17388289058385       -29.248719057802759        0.0000000000000000     
  -535.26556254138461       -93.909744157837281        0.0000000000000000     
  -745.63132302735698       -24.822760559581297        0.0000000000000000     
  -1369.2711643485009        178.01223173696505        0.0000000000000000     
  -2406.1850865048164        514.59523273180162        0.0000000000000000     
  -635.34986839356839        545.59023833588856        0.0000000000000000     
  -407.04560995618522       -9.5970782961102543        0.0000000000000000     
  -452.32849799595925       -218.93330215362198        0.0000000000000000     
  -771.19853251289078       -82.418433236646393        0.0000000000000000     
  -1363.6557135069795        399.94752845481645        0.0000000000000000     
  -586.01496182350434        654.44571873670429        0.0000000000000000     
  -374.24297088770146       -105.01917238807340        0.0000000000000000     
  -365.97217690375669       -409.88792300818596        0.0000000000000000     
  -561.20257987166974       -260.16053312363323        0.0000000000000000     
  -959.93417979144101        344.16299726558435        0.0000000000000000     
  -590.16916318039148        297.31772214464377        0.0000000000000000     
  -436.85764533593351       -380.17602643372652        0.0000000000000000     
  -486.56235975074912       -597.68662312327319        0.0000000000000000     
  -739.28330642483820       -355.21406792399574        0.0000000000000000     
  -1195.0204853582011        347.24163916410544        0.0000000000000000     
  -4087.5222987849515        688.10611009654019        0.0000000000000000     
  -5420.7731514083598        627.28113554469837        0.0000000000000000     
  -5333.7600624397783        292.57002701441974        0.0000000000000000     
  -3826.4830318792115       -316.02721549429583        0.0000000000000000     
  -898.94205972665486       -1198.5105919814482        0.0000000000000000     
  -2406.1850865048164        514.59523273180162        0.0000000000000000     
  -3280.0181175573575        694.85171581467864        0.0000000000000000     
  -3414.4152855671782        428.70715437534579        0.0000000000000000     
  -2809.3765905342784       -283.83845158619704        0.0000000000000000     
  -1464.9020324586588       -1442.7851020699495        0.0000000000000000     
  -1363.6557135069795        399.94752845481645        0.0000000000000000     
  -1943.9997979770910        777.78546515236656        0.0000000000000000     
  -2226.5305429220907        600.71625908760404        0.0000000000000000     
  -2211.2479483419784       -131.26008973947145        0.0000000000000000     
  -1898.1520142367544       -1418.1435813288597        0.0000000000000000     
  -959.93417979144101        344.16299726558435        0.0000000000000000     
  -1412.7181926675596        876.08238355776177        0.0000000000000000     
  -1770.1058345045160        808.59734115119386        0.0000000000000000     
  -2032.0971053023100        141.70787004588053        0.0000000000000000     
  -2198.6920050609415       -1124.5860297581783        0.0000000000000000     
  -1195.0204853582011        347.24163916410544        0.0000000000000000     
  -1686.1733016287644        989.74247103086464        0.0000000000000000     
  -2045.1411603144552        1052.3504005661157        0.0000000000000000     
  -2271.9240614152741        535.06542776985907        0.0000000000000000     
  -2366.5220049312202       -562.11244735790569        0.0000000000000000     
  -898.94205972665486       -1198.5105919814482        0.0000000000000000     
   1151.7746674493451       -1970.0954135654792        0.0000000000000000     
   28.578963080244421       -2245.9969913648310        0.0000000000000000     
  -4268.5291728339562       -2026.2153253795047        0.0000000000000000     
  -11739.549740293258       -1310.7504156094985        0.0000000000000000     
  -1464.9020324586588       -1442.7851020699495        0.0000000000000000     
  -457.79095669708272       -2256.0856252052527        0.0000000000000000     
  -864.84270860631477       -1931.6928491214474        0.0000000000000000     
  -2686.0572881863545       -469.60677381853361        0.0000000000000000     
  -5921.4346954372022        2130.1726007034886        0.0000000000000000     
  -1898.1520142367544       -1418.1435813288597        0.0000000000000000     
  -1532.2584878947287       -2317.4355143481675        0.0000000000000000     
  -1358.5831166042115       -1886.6371874650010        0.0000000000000000     
  -1377.1259003652021       -125.74860067936181        0.0000000000000000     
  -1587.8868391777019        2965.2302460087512        0.0000000000000000     
  -2198.6920050609415       -1124.5860297581783        0.0000000000000000     
  -2071.6279261435930       -2154.1450809942226        0.0000000000000000     
  -1452.6422609134454       -2110.8300063954930        0.0000000000000000     
  -341.73500937050039       -994.64080596198846        0.0000000000000000     
   1261.0938284852432        1194.4225203062904        0.0000000000000000     
  -2366.5220049312202       -562.11244735790569        0.0000000000000000     
  -2075.8992714436749       -1766.2143251434193        0.0000000000000000     
  -1147.0201415340175       -2604.2713059129223        0.0000000000000000     
   420.11538479775191       -3076.2833896664142        0.0000000000000000     
   2625.5073075516329       -3182.2505764038960        0.0000000000000000     
   0.0000000000000000        0.0000000000000000        0.0000000000000000     
  -35.955179285860851        49.780078099497828        0.0000000000000000     
  -71.054632291052229        93.549445370491370        0.0000000000000000     
  -105.29835901557414        131.30810181298062        0.0000000000000000     
  -138.68635945942654        163.05604742696562        0.0000000000000000     
   0.0000000000000000        0.0000000000000000        0.0000000000000000     
  -30.319376253449043        46.182372867705396        0.0000000000000000     
  -65.844203341764256        94.653514188754912        0.0000000000000000     
  -106.57448126494565        145.41342396314855        0.0000000000000000     
  -152.51021002299322        198.46210219088627        0.0000000000000000     
   0.0000000000000000        0.0000000000000000        0.0000000000000000     
  -26.441583660170650        49.242428779642403        0.0000000000000000     
  -61.416734886474316        103.77158887627004        0.0000000000000000     
  -104.92545367891101        163.58748028988293        0.0000000000000000     
  -156.96774003748070        228.69010302048108        0.0000000000000000     
   0.0000000000000000        0.0000000000000000        0.0000000000000000     
  -24.321801506025682        58.960245835308825        0.0000000000000000     
  -57.772226925182395        120.90366943303678        0.0000000000000000     
  -100.35127625747015        185.83027079318384        0.0000000000000000     
  -152.05894950288891        253.74004991574998        0.0000000000000000     
   0.0000000000000000        0.0000000000000000        0.0000000000000000     
  -23.960029791014144        75.335824034704700        0.0000000000000000     
  -54.910679457888506        146.04975585905510        0.0000000000000000     
  -92.851949000623108        212.14179547305119        0.0000000000000000     
  -137.78383841921794        273.61194287669304        0.0000000000000000     
  -138.68635945942654        163.05604742696562        0.0000000000000000     
  -178.40400731519054        196.87527222878148        0.0000000000000000     
  -231.63667627544703        240.84776623476336        0.0000000000000000     
  -298.38436634019610        294.97352944491115        0.0000000000000000     
  -378.64707750943774        359.25256185922507        0.0000000000000000     
  -152.51021002299322        198.46210219088627        0.0000000000000000     
  -203.12985980787397        248.62370657296310        0.0000000000000000     
  -257.91190081155497        290.72239481037400        0.0000000000000000     
  -316.85633303403608        324.75816690311905        0.0000000000000000     
  -379.96315647531748        350.73102285119813        0.0000000000000000     
  -156.96774003748070        228.69010302048108        0.0000000000000000     
  -212.99241114792392        288.00779293041217        0.0000000000000000     
  -268.44828419598133        330.46888588202415        0.0000000000000000     
  -323.33535918165285        356.07338187531673        0.0000000000000000     
  -377.65363610493853        364.82128091029017        0.0000000000000000     
  -152.05894950288891        253.74004991574998        0.0000000000000000     
  -207.99166133534041        315.02753130112870        0.0000000000000000     
  -263.24582642872616        360.08723944971354        0.0000000000000000     
  -317.82144478304645        388.91917436150459        0.0000000000000000     
  -371.71851639830095        401.52333603650152        0.0000000000000000     
  -137.78383841921794        273.61194287669304        0.0000000000000000     
  -188.12761037012334        329.68292168511272        0.0000000000000000     
  -242.30452750978955        379.57745551344237        0.0000000000000000     
  -300.31458983821670        423.29554436168212        0.0000000000000000     
  -362.15779735540474        460.83718822983190        0.0000000000000000     
  -378.64707750943774        359.25256185922507        0.0000000000000000     
  -453.68469893304609        408.02627043270701        0.0000000000000000     