 <VTKFile type="UnstructuredGrid"  version="0.1"   >
 <UnstructuredGrid>
 <Piece  NumberOfPoints="          6400 "  NumberOfCells="         4096 ">
 <Points>
 <DataArray  type="Float64" NumberOfComponents="3"  format="ascii" >
   0.0000000000000000        0.0000000000000000        0.0000000000000000     
   1.5625000000000000E-002   0.0000000000000000        0.0000000000000000     
   3.1250000000000000E-002   0.0000000000000000        0.0000000000000000     
   4.6875000000000000E-002   0.0000000000000000        0.0000000000000000     
   6.2500000000000000E-002   0.0000000000000000        0.0000000000000000     
   0.0000000000000000        1.5625000000000000E-002   0.0000000000000000     
   1.5625000000000000E-002   1.5625000000000000E-002   0.0000000000000000     
   3.1250000000000000E-002   1.5625000000000000E-002   0.0000000000000000     
   4.6875000000000000E-002   1.5625000000000000E-002   0.0000000000000000     
   6.2500000000000000E-002   1.5625000000000000E-002   0.0000000000000000     
   0.0000000000000000        3.1250000000000000E-002   0.0000000000000000     
   1.5625000000000000E-002   3.1250000000000000E-002   0.0000000000000000     
   3.1250000000000000E-002   3.1250000000000000E-002   0.0000000000000000     
   4.6875000000000000E-002   3.1250000000000000E-002   0.0000000000000000     
   6.2500000000000000E-002   3.1250000000000000E-002   0.0000000000000000     
   0.0000000000000000        4.6875000000000000E-002   0.0000000000000000     
   1.5625000000000000E-002   4.6875000000000000E-002   0.0000000000000000     
   3.1250000000000000E-002   4.6875000000000000E-002   0.0000000000000000     
   4.6875000000000000E-002   4.6875000000000000E-002   0.0000000000000000     
   6.2500000000000000E-002   4.6875000000000000E-002   0.0000000000000000     
   0.0000000000000000        6.2500000000000000E-002   0.0000000000000000     
   1.5625000000000000E-002   6.2500000000000000E-002   0.0000000000000000     
   3.1250000000000000E-002   6.2500000000000000E-002   0.0000000000000000     
   4.6875000000000000E-002   6.2500000000000000E-002   0.0000000000000000     
   6.2500000000000000E-002   6.2500000000000000E-002   0.0000000000000000     
   6.2500000000000000E-002   0.0000000000000000        0.0000000000000000     
   7.8125000000000000E-002   0.0000000000000000        0.0000000000000000     
   9.3750000000000000E-002   0.0000000000000000        0.0000000000000000     
  0.10937500000000000        0.0000000000000000        0.0000000000000000     
  0.12500000000000000        0.0000000000000000        0.0000000000000000     
   6.2500000000000000E-002   1.5625000000000000E-002   0.0000000000000000     
   7.8125000000000000E-002   1.5625000000000000E-002   0.0000000000000000     
   9.3750000000000000E-002   1.5625000000000000E-002   0.0000000000000000     
  0.10937500000000000        1.5625000000000000E-002   0.0000000000000000     
  0.12500000000000000        1.5625000000000000E-002   0.0000000000000000     
   6.2500000000000000E-002   3.1250000000000000E-002   0.0000000000000000     
   7.8125000000000000E-002   3.1250000000000000E-002   0.0000000000000000     
   9.3750000000000000E-002   3.1250000000000000E-002   0.0000000000000000     
  0.10937500000000000        3.1250000000000000E-002   0.0000000000000000     
  0.12500000000000000        3.1250000000000000E-002   0.0000000000000000     
   6.2500000000000000E-002   4.6875000000000000E-002   0.0000000000000000     
   7.8125000000000000E-002   4.6875000000000000E-002   0.0000000000000000     
   9.3750000000000000E-002   4.6875000000000000E-002   0.0000000000000000     
  0.10937500000000000        4.6875000000000000E-002   0.0000000000000000     
  0.12500000000000000        4.6875000000000000E-002   0.0000000000000000     
   6.2500000000000000E-002   6.2500000000000000E-002   0.0000000000000000     
   7.8125000000000000E-002   6.2500000000000000E-002   0.0000000000000000     
   9.3750000000000000E-002   6.2500000000000000E-002   0.0000000000000000     
  0.10937500000000000        6.2500000000000000E-002   0.0000000000000000     
  0.12500000000000000        6.2500000000000000E-002   0.0000000000000000     
  0.12500000000000000        0.0000000000000000        0.0000000000000000     
  0.14062500000000000        0.0000000000000000        0.0000000000000000     
  0.15625000000000000        0.0000000000000000        0.0000000000000000     
  0.17187500000000000        0.0000000000000000        0.0000000000000000     
  0.18750000000000000        0.0000000000000000        0.0000000000000000     
  0.12500000000000000        1.5625000000000000E-002   0.0000000000000000     
  0.14062500000000000        1.5625000000000000E-002   0.0000000000000000     
  0.15625000000000000        1.5625000000000000E-002   0.0000000000000000     
  0.17187500000000000        1.5625000000000000E-002   0.0000000000000000     
  0.18750000000000000        1.5625000000000000E-002   0.0000000000000000     
  0.12500000000000000        3.1250000000000000E-002   0.0000000000000000     
  0.14062500000000000        3.1250000000000000E-002   0.0000000000000000     
  0.15625000000000000        3.1250000000000000E-002   0.0000000000000000     
  0.17187500000000000        3.1250000000000000E-002   0.0000000000000000     
  0.18750000000000000        3.1250000000000000E-002   0.0000000000000000     
  0.12500000000000000        4.6875000000000000E-002   0.0000000000000000     
  0.14062500000000000        4.6875000000000000E-002   0.0000000000000000     
  0.15625000000000000        4.6875000000000000E-002   0.0000000000000000     
  0.17187500000000000        4.6875000000000000E-002   0.0000000000000000     
  0.18750000000000000        4.6875000000000000E-002   0.0000000000000000     
  0.12500000000000000        6.2500000000000000E-002   0.0000000000000000     
  0.14062500000000000        6.2500000000000000E-002   0.0000000000000000     
  0.15625000000000000        6.2500000000000000E-002   0.0000000000000000     
  0.17187500000000000        6.2500000000000000E-002   0.0000000000000000     
  0.18750000000000000        6.2500000000000000E-002   0.0000000000000000     
  0.18750000000000000        0.0000000000000000        0.0000000000000000     
  0.20312500000000000        0.0000000000000000        0.0000000000000000     
  0.21875000000000000        0.0000000000000000        0.0000000000000000     
  0.23437500000000000        0.0000000000000000        0.0000000000000000     
  0.25000000000000000        0.0000000000000000        0.0000000000000000     
  0.18750000000000000        1.5625000000000000E-002   0.0000000000000000     
  0.20312500000000000        1.5625000000000000E-002   0.0000000000000000     
  0.21875000000000000        1.5625000000000000E-002   0.0000000000000000     
  0.23437500000000000        1.5625000000000000E-002   0.0000000000000000     
  0.25000000000000000        1.5625000000000000E-002   0.0000000000000000     
  0.18750000000000000        3.1250000000000000E-002   0.0000000000000000     
  0.20312500000000000        3.1250000000000000E-002   0.0000000000000000     
  0.21875000000000000        3.1250000000000000E-002   0.0000000000000000     
  0.23437500000000000        3.1250000000000000E-002   0.0000000000000000     
  0.25000000000000000        3.1250000000000000E-002   0.0000000000000000     
  0.18750000000000000        4.6875000000000000E-002   0.0000000000000000     
  0.20312500000000000        4.6875000000000000E-002   0.0000000000000000     
  0.21875000000000000        4.6875000000000000E-002   0.0000000000000000     
  0.23437500000000000        4.6875000000000000E-002   0.0000000000000000     
  0.25000000000000000        4.6875000000000000E-002   0.0000000000000000     
  0.18750000000000000        6.2500000000000000E-002   0.0000000000000000     
  0.20312500000000000        6.2500000000000000E-002   0.0000000000000000     
  0.21875000000000000        6.2500000000000000E-002   0.0000000000000000     
  0.23437500000000000        6.2500000000000000E-002   0.0000000000000000     
  0.25000000000000000        6.2500000000000000E-002   0.0000000000000000     
  0.25000000000000000        0.0000000000000000        0.0000000000000000     
  0.26562500000000000        0.0000000000000000        0.0000000000000000     
  0.28125000000000000        0.0000000000000000        0.0000000000000000     
  0.29687500000000000        0.0000000000000000        0.0000000000000000     
  0.31250000000000000        0.0000000000000000        0.0000000000000000     
  0.25000000000000000        1.5625000000000000E-002   0.0000000000000000     
  0.26562500000000000        1.5625000000000000E-002   0.0000000000000000     
  0.28125000000000000        1.5625000000000000E-002   0.0000000000000000     
  0.29687500000000000        1.5625000000000000E-002   0.0000000000000000     
  0.31250000000000000        1.5625000000000000E-002   0.0000000000000000     
  0.25000000000000000        3.1250000000000000E-002   0.0000000000000000     
  0.26562500000000000        3.1250000000000000E-002   0.0000000000000000     
  0.28125000000000000        3.1250000000000000E-002   0.0000000000000000     
  0.29687500000000000        3.1250000000000000E-002   0.0000000000000000     
  0.31250000000000000        3.1250000000000000E-002   0.0000000000000000     
  0.25000000000000000        4.6875000000000000E-002   0.0000000000000000     
  0.26562500000000000        4.6875000000000000E-002   0.0000000000000000     
  0.28125000000000000        4.6875000000000000E-002   0.0000000000000000     
  0.29687500000000000        4.6875000000000000E-002   0.0000000000000000     
  0.31250000000000000        4.6875000000000000E-002   0.0000000000000000     
  0.25000000000000000        6.2500000000000000E-002   0.0000000000000000     
  0.26562500000000000        6.2500000000000000E-002   0.0000000000000000     
  0.28125000000000000        6.2500000000000000E-002   0.0000000000000000     
[...]
 <PointData>
 <DataArray  type="Float64" Name="disp" NumberOfComponents="3" format="ascii">
   0.0000000000000000        0.0000000000000000        0.0000000000000000     
   3.5269021002537317E-003   2.2892179134206140E-003   0.0000000000000000     
   6.7198828306356843E-003   4.3348696934171482E-003   0.0000000000000000     
   9.5789421911458596E-003   6.1369553399896037E-003   0.0000000000000000     
   1.2104080181784254E-002   7.6954748531379786E-003   0.0000000000000000     
   0.0000000000000000        0.0000000000000000        0.0000000000000000     
   2.8663069905299704E-003   1.8512803351662759E-003   0.0000000000000000     
   5.5983440017146648E-003   3.6149535144489745E-003   0.0000000000000000     
   8.1961110335540821E-003   5.2910195378480952E-003   0.0000000000000000     
   1.0659608086048222E-002   6.8794784053636381E-003   0.0000000000000000     
   0.0000000000000000        0.0000000000000000        0.0000000000000000     
   2.3679752784333975E-003   1.5088106873452248E-003   0.0000000000000000     
   4.7358522738521740E-003   3.0418176622058679E-003   0.0000000000000000     
   7.1036309862563315E-003   4.5990209245819281E-003   0.0000000000000000     
   9.4713114156458663E-003   6.1804204744734074E-003   0.0000000000000000     
   0.0000000000000000        0.0000000000000000        0.0000000000000000     
   2.0319069639640119E-003   1.2618089699574617E-003   0.0000000000000000     
   4.1324076470482148E-003   2.6154621366878297E-003   0.0000000000000000     
   6.3015020492526077E-003   4.0609595001911050E-003   0.0000000000000000     
   8.5391901705771933E-003   5.5983010604672865E-003   0.0000000000000000     
   0.0000000000000000        0.0000000000000000        0.0000000000000000     
   1.8581020471218138E-003   1.1102751830029854E-003   0.0000000000000000     
   3.7880101213027843E-003   2.3358869378948596E-003   0.0000000000000000     
   5.7897242225429116E-003   3.6768352646756228E-003   0.0000000000000000     
   7.8632443508421974E-003   5.1331201633452745E-003   0.0000000000000000     
   1.2104080181784254E-002   7.6954748531379786E-003   0.0000000000000000     
   1.4438310880524805E-002   9.1422093157521832E-003   0.0000000000000000     
   1.6724648365341446E-002   1.0608939810722130E-002   0.0000000000000000     
   1.8963092636234174E-002   1.2095666338047815E-002   0.0000000000000000     
   2.1153643693202988E-002   1.3602388897729242E-002   0.0000000000000000     
   1.0659608086048222E-002   6.8794784053636381E-003   0.0000000000000000     
   1.3021892803826523E-002   8.4188855358100813E-003   0.0000000000000000     
   1.5316022831518424E-002   9.9477963480018999E-003   0.0000000000000000     
   1.7541998169123926E-002   1.1466210841939094E-002   0.0000000000000000     
   1.9699818816643021E-002   1.2974129017621660E-002   0.0000000000000000     
   9.4713114156458663E-003   6.1804204744734074E-003   0.0000000000000000     
   1.1802131447279585E-002   7.7620023408167538E-003   0.0000000000000000     
   1.4059328966416287E-002   9.3197525525484191E-003   0.0000000000000000     
   1.6242903973055972E-002   1.0853671109668403E-002   0.0000000000000000     
   1.8352856467198642E-002   1.2363758012176705E-002   0.0000000000000000     
   8.5391901705771933E-003   5.5983010604672865E-003   0.0000000000000000     
   1.0779026810883992E-002   7.1715597307722059E-003   0.0000000000000000     
   1.2954566770035035E-002   8.7248084243616939E-003   0.0000000000000000     
   1.5065810048030316E-002   1.0258047141235752E-002   0.0000000000000000     
   1.7112756644869841E-002   1.1771275881394377E-002   0.0000000000000000     
   7.8632443508421974E-003   5.1331201633452745E-003   0.0000000000000000     
   9.9525788946397444E-003   6.6475577056764358E-003   0.0000000000000000     
   1.2001736242374666E-002   8.1629639634417193E-003   0.0000000000000000     
   1.4010716394046958E-002   9.6793389366411318E-003   0.0000000000000000     
   1.5979519349656621E-002   1.1196682625274668E-002   0.0000000000000000     
   2.1153643693202988E-002   1.3602388897729242E-002   0.0000000000000000     
   2.3304874733169674E-002   1.5134894213510316E-002   0.0000000000000000     
   2.5425358953056022E-002   1.6698969009134951E-002   0.0000000000000000     
   2.7515096352862020E-002   1.8294613284603151E-002   0.0000000000000000     
   2.9574086932587677E-002   1.9921827039914908E-002   0.0000000000000000     
   1.9699818816643021E-002   1.2974129017621660E-002   0.0000000000000000     
   2.1808137774215534E-002   1.4496754045568050E-002   0.0000000000000000     
   2.3885608041981268E-002   1.6059289096296701E-002   0.0000000000000000     
   2.5932229619940225E-002   1.7661734169807618E-002   0.0000000000000000     
   2.7948002508092401E-002   1.9304089266100798E-002   0.0000000000000000     
   1.8352856467198642E-002   1.2363758012176705E-002   0.0000000000000000     
   2.0410578929079413E-002   1.3884110474055869E-002   0.0000000000000000     
   2.2437463838933407E-002   1.5448825709288442E-002   0.0000000000000000     
   2.4433511196760616E-002   1.7057903717874419E-002   0.0000000000000000     
   2.6398721002561042E-002   1.8711344499813806E-002   0.0000000000000000     
   1.7112756644869841E-002   1.1771275881394377E-002   0.0000000000000000     
   1.9112198197761308E-002   1.3296963498973781E-002   0.0000000000000000     
   2.1080926343912426E-002   1.4867578848110175E-002   0.0000000000000000     
   2.3018941083323190E-002   1.6483121928803562E-002   0.0000000000000000     
   2.4926242415993602E-002   1.8143592741053937E-002   0.0000000000000000     
   1.5979519349656621E-002   1.1196682625274668E-002   0.0000000000000000     
   1.7912995580261219E-002   1.2735313120321777E-002   0.0000000000000000     
   1.9815995556918327E-002   1.4315548512761900E-002   0.0000000000000000     
   2.1688519279627949E-002   1.5937388802595039E-002   0.0000000000000000     
   2.3530566748390075E-002   1.7600833989821190E-002   0.0000000000000000     
   2.9574086932587677E-002   1.9921827039914908E-002   0.0000000000000000     
   3.1604104953005169E-002   2.1589795645537754E-002   0.0000000000000000     
   3.3606924674886685E-002   2.3307704471939219E-002   0.0000000000000000     
   3.5582546098232228E-002   2.5075553519119304E-002   0.0000000000000000     
   3.7530969223041777E-002   2.6893342787078008E-002   0.0000000000000000     
   2.7948002508092401E-002   1.9304089266100798E-002   0.0000000000000000     
   2.9933879887394543E-002   2.0989435315726165E-002   0.0000000000000000     
   3.1890814938803379E-002   2.2720853249233650E-002   0.0000000000000000     
   3.3818807662318914E-002   2.4498343066623254E-002   0.0000000000000000     
   3.5717858057941143E-002   2.6321904767894970E-002   0.0000000000000000     
   2.6398721002561042E-002   1.8711344499813806E-002   0.0000000000000000     
   2.8333844909481303E-002   2.0409009923696732E-002   0.0000000000000000     
   3.0239634570667990E-002   2.2150761858113332E-002   0.0000000000000000     
   3.2116089986121116E-002   2.3936600303063611E-002   0.0000000000000000     
   3.3963211155840674E-002   2.5766525258547567E-002   0.0000000000000000     
   2.4926242415993602E-002   1.8143592741053937E-002   0.0000000000000000     
   2.6804000019265455E-002   1.9848519469449457E-002   0.0000000000000000     
   2.8653383570480532E-002   2.1597430298578274E-002   0.0000000000000000     
   3.0474393069638835E-002   2.3390325228440385E-002   0.0000000000000000     
   3.2267028516740362E-002   2.5227204259035789E-002   0.0000000000000000     
   2.3530566748390075E-002   1.7600833989821190E-002   0.0000000000000000     
   2.5344345216746989E-002   1.9307963952984342E-002   0.0000000000000000     
   2.7132061938240991E-002   2.1060858570628466E-002   0.0000000000000000     
   2.8893716912872063E-002   2.2859517842753568E-002   0.0000000000000000     
   3.0629310140640218E-002   2.4703941769359646E-002   0.0000000000000000     
   3.7530969223041777E-002   2.6893342787078008E-002   0.0000000000000000     
   3.9454770189697091E-002   2.8761132114515531E-002   0.0000000000000000     
   4.1356525138579896E-002   3.0678981340132080E-002   0.0000000000000000     
   4.3236234069690183E-002   3.2646890463927651E-002   0.0000000000000000     
   4.5093896983027959E-002   3.4664859485902255E-002   0.0000000000000000     
   3.5717858057941143E-002   2.6321904767894970E-002   0.0000000000000000     
   3.7591083104986378E-002   2.8194082608571886E-002   0.0000000000000000     
   3.9441599782770911E-002   3.0117420844177074E-002   0.0000000000000000     
   4.1269408091294743E-002   3.2091919474710538E-002   0.0000000000000000     
   4.3074508030557887E-002   3.4117578500172274E-002   0.0000000000000000     
   3.3963211155840674E-002   2.5766525258547567E-002   0.0000000000000000     
   3.5784088639059811E-002   2.7644336557066610E-002   0.0000000000000000     
   3.7581812995011690E-002   2.9573834031122136E-002   0.0000000000000000     
   3.9356384223696285E-002   3.1555017680714177E-002   0.0000000000000000     
   4.1107802325113622E-002   3.3587887505842698E-002   0.0000000000000000     
   3.2267028516740362E-002   2.5227204259035789E-002   0.0000000000000000     
   3.4033786791917389E-002   2.7111893959999689E-002   0.0000000000000000     
   3.5777164775302212E-002   2.9048220900967276E-002   0.0000000000000000     
   3.7497162466894801E-002   3.1036185081938554E-002   0.0000000000000000     
   3.9193779866695179E-002   3.3075786502913512E-002   0.0000000000000000     
   3.0629310140640218E-002   2.4703941769359646E-002   0.0000000000000000     
   3.2340177563559128E-002   2.6596754817371133E-002   0.0000000000000000     
   3.4027655123642496E-002   2.8540581453712476E-002   0.0000000000000000     
   3.5691742820890292E-002   3.0535421678383672E-002   0.0000000000000000     
   3.7332440655302536E-002   3.2581275491384717E-002   0.0000000000000000     
   4.5093896983027959E-002   3.4664859485902255E-002   0.0000000000000000     
   4.6929089872459022E-002   3.6734228082277158E-002   0.0000000000000000     
   4.8741388731849175E-002   3.8856335929273664E-002   0.0000000000000000     
   5.0530793561198425E-002   4.1031183026891759E-002   0.0000000000000000     
   5.2297304360506766E-002   4.3258769375131449E-002   0.0000000000000000     
   4.3074508030557887E-002   3.4117578500172274E-002   0.0000000000000000     
   4.4857002690316304E-002   3.6194856948377915E-002   0.0000000000000000     
   4.6616995160326004E-002   3.8324213847143081E-002   0.0000000000000000     
   4.8354485440586965E-002   4.0505649196467777E-002   0.0000000000000000     
   5.0069473531099203E-002   4.2739162996351984E-002   0.0000000000000000     
   4.1107802325113622E-002   3.3587887505842698E-002   0.0000000000000000     
   4.2836568402576283E-002   3.5672443141856441E-002   0.0000000000000000     
   4.4543183559396869E-002   3.7808684224104112E-002   0.0000000000000000     
   4.6227647795575352E-002   3.9996610752585725E-002   0.0000000000000000     
   4.7889961111111767E-002   4.2236222727301265E-002   0.0000000000000000     
   3.9193779866695179E-002   3.3075786502913512E-002   0.0000000000000000     
   4.0867787009238953E-002   3.5166986662712729E-002   0.0000000000000000     
   4.2519953929061750E-002   3.7309747060156766E-002   0.0000000000000000     
   4.4150280626163579E-002   3.9504067695245608E-002   0.0000000000000000     
   4.5758767100544433E-002   4.1749948567979284E-002   0.0000000000000000     
   3.7332440655302536E-002   3.2581275491384717E-002   0.0000000000000000     
   3.8950658510304312E-002   3.4678487510946779E-002   0.0000000000000000     
   4.0547306269320675E-002   3.6827402355301020E-002   0.0000000000000000     
   4.2122383932351654E-002   3.9028020024447448E-002   0.0000000000000000     
   4.3675891499397226E-002   4.1280340518386055E-002   0.0000000000000000     
   5.2297304360506766E-002   4.3258769375131449E-002   0.0000000000000000     
   5.4043753013438597E-002   4.5538275474350257E-002   0.0000000000000000     
   5.5772971403658334E-002   4.7868881824905701E-002   0.0000000000000000     
   5.7484959531165968E-002   5.0250588426797790E-002   0.0000000000000000     
   5.9179717395961513E-002   5.2683395280026524E-002   0.0000000000000000     
   5.0069473531099203E-002   4.2739162996351984E-002   0.0000000000000000     
   5.1763799527335883E-002   4.5024379340439742E-002   0.0000000000000000     
   5.3439303524770193E-002   4.7360922322375064E-002   0.0000000000000000     
   5.5095985523402134E-002   4.9748791942157942E-002   0.0000000000000000     
   5.6733845523231699E-002   5.2187988199788399E-002   0.0000000000000000     
   4.7889961111111767E-002   4.2236222727301265E-002   0.0000000000000000     
   4.9531205007246303E-002   4.4527504849734958E-002   0.0000000000000000     
   5.1152460985219216E-002   4.6870441821371053E-002   0.0000000000000000     
   5.2753729045030479E-002   4.9265033642209542E-002   0.0000000000000000     
   5.4335009186680119E-002   5.1711280312250404E-002   0.0000000000000000     
   4.5758767100544433E-002   4.1749948567979284E-002   0.0000000000000000     
   4.7345969453169857E-002   4.4047652002235919E-002   0.0000000000000000     
   4.8912443785005387E-002   4.6397440321893683E-002   0.0000000000000000     
   5.0458190096051021E-002   4.8799313526952562E-002   0.0000000000000000     
   5.1983208386306781E-002   5.1253271617412569E-002   0.0000000000000000     
   4.3675891499397226E-002   4.1280340518386055E-002   0.0000000000000000     
   4.5208092865106533E-002   4.3584820797942625E-002   0.0000000000000000     
   4.6719251924128714E-002   4.5941917823942961E-002   0.0000000000000000     
   4.8209368676463762E-002   4.8351631596387022E-002   0.0000000000000000     
   4.9678443122111685E-002   5.0813962115274863E-002   0.0000000000000000     
   5.9179717395961513E-002   5.2683395280026524E-002   0.0000000000000000     
   6.0857273122072300E-002   5.5170530569521467E-002   0.0000000000000000     
   6.2517654833525685E-002   5.7715222480212207E-002   0.0000000000000000     
   6.4160862530321661E-002   6.0317471012098729E-002   0.0000000000000000     
   6.5786896212460241E-002   6.2977276165181048E-002   0.0000000000000000     
   5.6733845523231699E-002   5.2187988199788399E-002   0.0000000000000000     
   5.8351162863770206E-002   5.4681686468319841E-002   0.0000000000000000     
   5.9946216884528954E-002   5.7233062120805721E-002   0.0000000000000000     
   6.1519007585507941E-002   5.9842115157246037E-002   0.0000000000000000     
   6.3069534966707183E-002   6.2508845577640804E-002   0.0000000000000000     
   5.4335009186680119E-002   5.1711280312250404E-002   0.0000000000000000     
   5.5893593691225929E-002   5.4212023145849247E-002   0.0000000000000000     
   5.7426774839725706E-002   5.6770103457361623E-002   0.0000000000000000     
   5.8934552632179463E-002   5.9385521246787518E-002   0.0000000000000000     
   6.0416927068587201E-002   6.2058276514126966E-002   0.0000000000000000     
   5.1983208386306781E-002   5.1253271617412569E-002   0.0000000000000000     
   5.3484565604439469E-002   5.3761540602109678E-002   0.0000000000000000     
   5.4959328699115968E-002   5.6326346489879872E-002   0.0000000000000000     
   5.6407497670336232E-002   5.8947689280723171E-002   0.0000000000000000     
   5.7829072518100287E-002   6.1625568974639548E-002   0.0000000000000000     
   4.9678443122111685E-002   5.0813962115274863E-002   0.0000000000000000     
   5.1124078603410866E-002   5.3330238837101120E-002   0.0000000000000000     
   5.2543878462699728E-002   5.5901791218360489E-002   0.0000000000000000     
   5.3937842699978263E-002   5.8528619259052957E-002   0.0000000000000000     
   5.5305971315246470E-002   6.1210722959178523E-002   0.0000000000000000     
   6.5786896212460241E-002   6.2977276165181048E-002   0.0000000000000000     
   6.7384082275300933E-002   6.5687227792266267E-002   0.0000000000000000     
   6.8940747114203269E-002   6.8439915746161470E-002   0.0000000000000000     
   7.0456890729167262E-002   7.1235340026866656E-002   0.0000000000000000     
   7.1932513120192915E-002   7.4073500634381839E-002   0.0000000000000000     
   6.3069534966707183E-002   6.2508845577640804E-002   0.0000000000000000     
   6.4593329107133474E-002   6.5225917226668054E-002   0.0000000000000000     
   6.6085920085793615E-002   6.7985993949005868E-002   0.0000000000000000     
   6.7547307902687592E-002   7.0789075744654290E-002   0.0000000000000000     
   6.8977492557815434E-002   7.3635162613613248E-002   0.0000000000000000     
   6.0416927068587201E-002   6.2058276514126966E-002   0.0000000000000000     
   6.1874311039829523E-002   6.4781270488834586E-002   0.0000000000000000     
   6.3307117436787047E-002   6.7547404400365024E-002   0.0000000000000000     
   6.4715346259459780E-002   7.0356678248718302E-002   0.0000000000000000     
   6.6098997507847687E-002   7.3209092033894377E-002   0.0000000000000000     
   5.7829072518100287E-002   6.1625568974639548E-002   0.0000000000000000     
   5.9227028073389094E-002   6.4353287578765836E-002   0.0000000000000000     
   6.0604339167183600E-002   6.7124147100238896E-002   0.0000000000000000     
   6.1961005799483812E-002   6.9938147539058679E-002   0.0000000000000000     
   6.3297027970289715E-002   7.2795288895225227E-002   0.0000000000000000     
   5.5305971315246470E-002   6.1210722959178523E-002   0.0000000000000000     
   5.6651480207812195E-002   6.3941968496461832E-002   0.0000000000000000     
   5.7977585276983268E-002   6.6716222048627469E-002   0.0000000000000000     
   5.9284286522759702E-002   6.9533483615675462E-002   0.0000000000000000     
   6.0571583945141484E-002   7.2393753197605812E-002   0.0000000000000000     
   7.1932513120192915E-002   7.4073500634381839E-002   0.0000000000000000     
   7.3377486289244218E-002   7.6951849595894378E-002   0.0000000000000000     
   7.4801682238285150E-002   7.9867838938591632E-002   0.0000000000000000     
   7.6205100967315725E-002   8.2821468662473627E-002   0.0000000000000000     
   7.7587742476335958E-002   8.5812738767540336E-002   0.0000000000000000     
   6.8977492557815434E-002   7.3635162613613248E-002   0.0000000000000000     
   7.0381430284680205E-002   7.6521364771642952E-002   0.0000000000000000     
   7.1764077316784983E-002   7.9444792434503614E-002   0.0000000000000000     
   7.3125433654129754E-002   8.2405445602195149E-002   0.0000000000000000     
   7.4465499296714532E-002   8.5403324274717654E-002   0.0000000000000000     
   6.6098997507847687E-002   7.3209092033894377E-002   0.0000000000000000     
   6.7459738816440740E-002   7.6101698318143216E-002   0.0000000000000000     
   6.8799237819728798E-002   7.9031549663714770E-002   0.0000000000000000     
   7.0117494517711890E-002   8.1998646070608985E-002   0.0000000000000000     
   7.1414508910389987E-002   8.5002987538825930E-002   0.0000000000000000     
   6.3297027970289715E-002   7.2795288895225227E-002   0.0000000000000000     
   6.4612411884525822E-002   7.5692850235395154E-002   0.0000000000000000     
   6.5907163747116623E-002   7.8628110626225128E-002   0.0000000000000000     
   6.7181283558062119E-002   8.1601070067715109E-002   0.0000000000000000     
   6.8434771317362295E-002   8.4611728559865151E-002   0.0000000000000000     
   6.0571583945141484E-002   7.2393753197605812E-002   0.0000000000000000     
   6.1839449488935459E-002   7.5294820523398795E-002   0.0000000000000000     
   6.3087855098948445E-002   7.8234475322034716E-002   0.0000000000000000     
   6.4316800775180441E-002   8.1212717593513575E-002   0.0000000000000000     
   6.5526286517631455E-002   8.4229547337835359E-002   0.0000000000000000     
   7.7587742476335958E-002   8.5812738767540336E-002   0.0000000000000000     
   7.8949571125810525E-002   8.8841766894361490E-002   0.0000000000000000     