 <VTKFile type="UnstructuredGrid"  version="0.1"   >
 <UnstructuredGrid>
 <Piece  NumberOfPoints="          1600 "  NumberOfCells="         1024 ">
 <Points>
 <DataArray  type="Float64" NumberOfComponents="3"  format="ascii" >
   0.0000000000000000        0.0000000000000000        0.0000000000000000     
   3.1250000000000000E-002   0.0000000000000000        0.0000000000000000     
   6.2500000000000000E-002   0.0000000000000000        0.0000000000000000     
   9.3750000000000000E-002   0.0000000000000000        0.0000000000000000     
  0.12500000000000000        0.0000000000000000        0.0000000000000000     
   0.0000000000000000        3.1250000000000000E-002   0.0000000000000000     
   3.1250000000000000E-002   3.1250000000000000E-002   0.0000000000000000     
   6.2500000000000000E-002   3.1250000000000000E-002   0.0000000000000000     
   9.3750000000000000E-002   3.1250000000000000E-002   0.0000000000000000     
  0.12500000000000000        3.1250000000000000E-002   0.0000000000000000     
   0.0000000000000000        6.2500000000000000E-002   0.0000000000000000     
   3.1250000000000000E-002   6.2500000000000000E-002   0.0000000000000000     
   6.2500000000000000E-002   6.2500000000000000E-002   0.0000000000000000     
   9.3750000000000000E-002   6.2500000000000000E-002   0.0000000000000000     
  0.12500000000000000        6.2500000000000000E-002   0.0000000000000000     
   0.0000000000000000        9.3750000000000000E-002   0.0000000000000000     
   3.1250000000000000E-002   9.3750000000000000E-002   0.0000000000000000     
   6.2500000000000000E-002   9.3750000000000000E-002   0.0000000000000000     
   9.3750000000000000E-002   9.3750000000000000E-002   0.0000000000000000     
  0.12500000000000000        9.3750000000000000E-002   0.0000000000000000     
   0.0000000000000000       0.12500000000000000        0.0000000000000000     
   3.1250000000000000E-002  0.12500000000000000        0.0000000000000000     
   6.2500000000000000E-002  0.12500000000000000        0.0000000000000000     
   9.3750000000000000E-002  0.12500000000000000        0.0000000000000000     
  0.12500000000000000       0.12500000000000000        0.0000000000000000     
  0.12500000000000000        0.0000000000000000        0.0000000000000000     
  0.15625000000000000        0.0000000000000000        0.0000000000000000     
  0.18750000000000000        0.0000000000000000        0.0000000000000000     
  0.21875000000000000        0.0000000000000000        0.0000000000000000     
  0.25000000000000000        0.0000000000000000        0.0000000000000000     
  0.12500000000000000        3.1250000000000000E-002   0.0000000000000000     
  0.15625000000000000        3.1250000000000000E-002   0.0000000000000000     
  0.18750000000000000        3.1250000000000000E-002   0.0000000000000000     
  0.21875000000000000        3.1250000000000000E-002   0.0000000000000000     
  0.25000000000000000        3.1250000000000000E-002   0.0000000000000000     
  0.12500000000000000        6.2500000000000000E-002   0.0000000000000000     
  0.15625000000000000        6.2500000000000000E-002   0.0000000000000000     
  0.18750000000000000        6.2500000000000000E-002   0.0000000000000000     
  0.21875000000000000        6.2500000000000000E-002   0.0000000000000000     
  0.25000000000000000        6.2500000000000000E-002   0.0000000000000000     
  0.12500000000000000        9.3750000000000000E-002   0.0000000000000000     
  0.15625000000000000        9.3750000000000000E-002   0.0000000000000000     
  0.18750000000000000        9.3750000000000000E-002   0.0000000000000000     
  0.21875000000000000        9.3750000000000000E-002   0.0000000000000000     
  0.25000000000000000        9.3750000000000000E-002   0.0000000000000000     
  0.12500000000000000       0.12500000000000000        0.0000000000000000     
  0.15625000000000000       0.12500000000000000        0.0000000000000000     
  0.18750000000000000       0.12500000000000000        0.0000000000000000     
  0.21875000000000000       0.12500000000000000        0.0000000000000000     
  0.25000000000000000       0.12500000000000000        0.0000000000000000     
  0.25000000000000000        0.0000000000000000        0.0000000000000000     
  0.28125000000000000        0.0000000000000000        0.0000000000000000     
  0.31250000000000000        0.0000000000000000        0.0000000000000000     
  0.34375000000000000        0.0000000000000000        0.0000000000000000     
  0.37500000000000000        0.0000000000000000        0.0000000000000000     
  0.25000000000000000        3.1250000000000000E-002   0.0000000000000000     
  0.28125000000000000        3.1250000000000000E-002   0.0000000000000000     
  0.31250000000000000        3.1250000000000000E-002   0.0000000000000000     
  0.34375000000000000        3.1250000000000000E-002   0.0000000000000000     
  0.37500000000000000        3.1250000000000000E-002   0.0000000000000000     
  0.25000000000000000        6.2500000000000000E-002   0.0000000000000000     
  0.28125000000000000        6.2500000000000000E-002   0.0000000000000000     
  0.31250000000000000        6.2500000000000000E-002   0.0000000000000000     
  0.34375000000000000        6.2500000000000000E-002   0.0000000000000000     
  0.37500000000000000        6.2500000000000000E-002   0.0000000000000000     
  0.25000000000000000        9.3750000000000000E-002   0.0000000000000000     
  0.28125000000000000        9.3750000000000000E-002   0.0000000000000000     
  0.31250000000000000        9.3750000000000000E-002   0.0000000000000000     
  0.34375000000000000        9.3750000000000000E-002   0.0000000000000000     
  0.37500000000000000        9.3750000000000000E-002   0.0000000000000000     
  0.25000000000000000       0.12500000000000000        0.0000000000000000     
  0.28125000000000000       0.12500000000000000        0.0000000000000000     
  0.31250000000000000       0.12500000000000000        0.0000000000000000     
  0.34375000000000000       0.12500000000000000        0.0000000000000000     
  0.37500000000000000       0.12500000000000000        0.0000000000000000     
  0.37500000000000000        0.0000000000000000        0.0000000000000000     
  0.40625000000000000        0.0000000000000000        0.0000000000000000     
  0.43750000000000000        0.0000000000000000        0.0000000000000000     
  0.46875000000000000        0.0000000000000000        0.0000000000000000     
  0.50000000000000000        0.0000000000000000        0.0000000000000000     
  0.37500000000000000        3.1250000000000000E-002   0.0000000000000000     
  0.40625000000000000        3.1250000000000000E-002   0.0000000000000000     
  0.43750000000000000        3.1250000000000000E-002   0.0000000000000000     
  0.46875000000000000        3.1250000000000000E-002   0.0000000000000000     
  0.50000000000000000        3.1250000000000000E-002   0.0000000000000000     
  0.37500000000000000        6.2500000000000000E-002   0.0000000000000000     
  0.40625000000000000        6.2500000000000000E-002   0.0000000000000000     
  0.43750000000000000        6.2500000000000000E-002   0.0000000000000000     
  0.46875000000000000        6.2500000000000000E-002   0.0000000000000000     
  0.50000000000000000        6.2500000000000000E-002   0.0000000000000000     
  0.37500000000000000        9.3750000000000000E-002   0.0000000000000000     
  0.40625000000000000        9.3750000000000000E-002   0.0000000000000000     
  0.43750000000000000        9.3750000000000000E-002   0.0000000000000000     
  0.46875000000000000        9.3750000000000000E-002   0.0000000000000000     
  0.50000000000000000        9.3750000000000000E-002   0.0000000000000000     
  0.37500000000000000       0.12500000000000000        0.0000000000000000     
  0.40625000000000000       0.12500000000000000        0.0000000000000000     
  0.43750000000000000       0.12500000000000000        0.0000000000000000     
  0.46875000000000000       0.12500000000000000        0.0000000000000000     
  0.50000000000000000       0.12500000000000000        0.0000000000000000     
  0.50000000000000000        0.0000000000000000        0.0000000000000000     
  0.53125000000000000        0.0000000000000000        0.0000000000000000     
  0.56250000000000000        0.0000000000000000        0.0000000000000000     
  0.59375000000000000        0.0000000000000000        0.0000000000000000     
  0.62500000000000000        0.0000000000000000        0.0000000000000000     
  0.50000000000000000        3.1250000000000000E-002   0.0000000000000000     
  0.53125000000000000        3.1250000000000000E-002   0.0000000000000000     
  0.56250000000000000        3.1250000000000000E-002   0.0000000000000000     
  0.59375000000000000        3.1250000000000000E-002   0.0000000000000000     
  0.62500000000000000        3.1250000000000000E-002   0.0000000000000000     
  0.50000000000000000        6.2500000000000000E-002   0.0000000000000000     
  0.53125000000000000        6.2500000000000000E-002   0.0000000000000000     
  0.56250000000000000        6.2500000000000000E-002   0.0000000000000000     
  0.59375000000000000        6.2500000000000000E-002   0.0000000000000000     
  0.62500000000000000        6.2500000000000000E-002   0.0000000000000000     
  0.50000000000000000        9.3750000000000000E-002   0.0000000000000000     
  0.53125000000000000        9.3750000000000000E-002   0.0000000000000000     
  0.56250000000000000        9.3750000000000000E-002   0.0000000000000000     
  0.59375000000000000        9.3750000000000000E-002   0.0000000000000000     
  0.62500000000000000        9.3750000000000000E-002   0.0000000000000000     
  0.50000000000000000       0.12500000000000000        0.0000000000000000     
  0.53125000000000000       0.12500000000000000        0.0000000000000000     
  0.56250000000000000       0.12500000000000000        0.0000000000000000     
[...]
 <PointData>
 <DataArray  type="Float64" Name="disp" NumberOfComponents="3" format="ascii">
   0.0000000000000000        0.0000000000000000        0.0000000000000000     
   6.0958401840425051E-003   3.7903500121973886E-003   0.0000000000000000     
   1.1665840496232475E-002   7.3237288920871176E-003   0.0000000000000000     
   1.6710000936569908E-002   1.0600136639669189E-002   0.0000000000000000     
   2.1228321505054812E-002   1.3619573254943604E-002   0.0000000000000000     
   0.0000000000000000        0.0000000000000000        0.0000000000000000     
   4.8910891732139410E-003   3.0221026302364694E-003   0.0000000000000000     
   9.5735442286650346E-003   6.0604645693158668E-003   0.0000000000000000     
   1.4047365166353286E-002   9.1150858172381905E-003   0.0000000000000000     
   1.8312551986278690E-002   1.2185966374003439E-002   0.0000000000000000     
   0.0000000000000000        0.0000000000000000        0.0000000000000000     
   3.9535457853587409E-003   2.4251012746176045E-003   0.0000000000000000     
   7.9105815971844250E-003   5.0628589745385227E-003   0.0000000000000000     
   1.1871107435477054E-002   7.9132730997627555E-003   0.0000000000000000     
   1.5835123300236627E-002   1.0976343650290304E-002   0.0000000000000000     
   0.0000000000000000        0.0000000000000000        0.0000000000000000     
   3.2832100204769048E-003   1.9993459453407927E-003   0.0000000000000000     
   6.6769526017906432E-003   4.3309121077550906E-003   0.0000000000000000     
   1.0181227743941212E-002   6.9946984872428907E-003   0.0000000000000000     
   1.3796035446928617E-002   9.9907050838041953E-003   0.0000000000000000     
   0.0000000000000000        0.0000000000000000        0.0000000000000000     
   2.8800818785684342E-003   1.7448366424060344E-003   0.0000000000000000     
   5.8726572424836884E-003   3.8646239689655651E-003   0.0000000000000000     
   8.9777260917457639E-003   6.3593619796785917E-003   0.0000000000000000     
   1.2195288426354658E-002   9.2290506745451150E-003   0.0000000000000000     
   2.1228321505054812E-002   1.3619573254943604E-002   0.0000000000000000     
   2.5433530326753384E-002   1.6612572498125363E-002   0.0000000000000000     
   2.9538355526731855E-002   1.9809668129429480E-002   0.0000000000000000     
   3.3542797104990210E-002   2.3210860148855952E-002   0.0000000000000000     
   3.7446855061528457E-002   2.6816148556404774E-002   0.0000000000000000     
   1.8312551986278690E-002   1.2185966374003439E-002   0.0000000000000000     
   2.2407257246932669E-002   1.5341428618349952E-002   0.0000000000000000     
   2.6369633506806649E-002   1.8649794929016052E-002   0.0000000000000000     
   3.0199680765900624E-002   2.2111065306001751E-002   0.0000000000000000     
   3.3897399024214597E-002   2.5725239749307037E-002   0.0000000000000000     
   1.5835123300236627E-002   1.0976343650290304E-002   0.0000000000000000     
   1.9730847150260238E-002   1.4210885255800935E-002   0.0000000000000000     
   2.3486496944344980E-002   1.7575712545974412E-002   0.0000000000000000     
   2.7102072682490860E-002   2.1070825520810747E-002   0.0000000000000000     
   3.0577574364697876E-002   2.4696224180309923E-002   0.0000000000000000     
   1.3796035446928617E-002   9.9907050838041953E-003   0.0000000000000000     
   1.7404300036736084E-002   1.3220942410478317E-002   0.0000000000000000     
   2.0888945839346851E-002   1.6587420980304562E-002   0.0000000000000000     
   2.4249972854760927E-002   2.0090140793282935E-002   0.0000000000000000     
   2.7487381082978296E-002   2.3729101849413434E-002   0.0000000000000000     
   1.2195288426354658E-002   9.2290506745451150E-003   0.0000000000000000     
   1.5427615906360211E-002   1.2371600082382094E-002   0.0000000000000000     
   1.8576980191812267E-002   1.5684920232006499E-002   0.0000000000000000     
   2.1643381282710820E-002   1.9169011123418320E-002   0.0000000000000000     
   2.4626819179055872E-002   2.2823872756617566E-002   0.0000000000000000     
   3.7446855061528457E-002   2.6816148556404774E-002   0.0000000000000000     
   4.1255288755559963E-002   3.0620992490119524E-002   0.0000000000000000     
   4.4972857546298081E-002   3.4620851088043782E-002   0.0000000000000000     
   4.8599561433742819E-002   3.8815724350177529E-002   0.0000000000000000     
   5.2135400417894183E-002   4.3205612276520783E-002   0.0000000000000000     
   3.3897399024214597E-002   2.5725239749307037E-002   0.0000000000000000     
   3.7486126718659335E-002   2.9521168635629889E-002   0.0000000000000000     
   4.0989202286145630E-002   3.3527702341668263E-002   0.0000000000000000     
   4.4406625726673463E-002   3.7744840867422157E-002   0.0000000000000000     
   4.7738397040242839E-002   4.2172584212891585E-002   0.0000000000000000     
   3.0577574364697876E-002   2.4696224180309923E-002   0.0000000000000000     
   3.3942437616687748E-002   2.8496444783828092E-002   0.0000000000000000     
   3.7226098064182200E-002   3.2516023590721393E-002   0.0000000000000000     
   4.0428555707181235E-002   3.6754960600989824E-002   0.0000000000000000     
   4.3549810545684860E-002   4.1213255814633393E-002   0.0000000000000000     
   2.7487381082978296E-002   2.3729101849413434E-002   0.0000000000000000     
   3.0624221449645189E-002   2.7546820934714146E-002   0.0000000000000000     
   3.3683544880407812E-002   3.1585814835203188E-002   0.0000000000000000     
   3.6665351375266171E-002   3.5846083550880536E-002   0.0000000000000000     
   3.9569640934220253E-002   4.0327627081746198E-002   0.0000000000000000     
   2.4626819179055872E-002   2.2823872756617566E-002   0.0000000000000000     
   2.7531478217531668E-002   2.6672297088288058E-002   0.0000000000000000     
   3.0361542734822462E-002   3.0737076075113633E-002   0.0000000000000000     
   3.3117012730928243E-002   3.5018209717094274E-002   0.0000000000000000     
   3.5797888205849018E-002   3.9515698014230008E-002   0.0000000000000000     
   5.2135400417894183E-002   4.3205612276520783E-002   0.0000000000000000     
   5.5576585071034530E-002   4.7794943979002386E-002   0.0000000000000000     
   5.8919325965446238E-002   5.2588148569551227E-002   0.0000000000000000     
   6.2163623101129308E-002   5.7585226048167293E-002   0.0000000000000000     
   6.5309476478083731E-002   6.2786176414850597E-002   0.0000000000000000     
   4.7738397040242839E-002   4.2172584212891585E-002   0.0000000000000000     
   5.0980012619205942E-002   4.6804676276137512E-002   0.0000000000000000     
   5.4126968855914948E-002   5.1634860955220921E-002   0.0000000000000000     
   5.7179265750369863E-002   5.6663138250141812E-002   0.0000000000000000     
   6.0136903302570682E-002   6.1889508160900178E-002   0.0000000000000000     
   4.3549810545684860E-002   4.1213255814633393E-002   0.0000000000000000     
   4.6585671663841713E-002   4.5878763533540388E-002   0.0000000000000000     
   4.9531948145800468E-002   5.0739338059599119E-002   0.0000000000000000     
   5.2388639991561112E-002   5.5794979392809585E-002   0.0000000000000000     
   5.5155747201123664E-002   6.1045687533171786E-002   0.0000000000000000     
   3.9569640934220253E-002   4.0327627081746198E-002   0.0000000000000000     
   4.2393562204941865E-002   4.5017205751211015E-002   0.0000000000000000     
   4.5134263835102800E-002   4.9901579882685829E-002   0.0000000000000000     
   4.7791745824703080E-002   5.4980749476170626E-002   0.0000000000000000     
   5.0366008173742663E-002   6.0254714531665421E-002   0.0000000000000000     
   3.5797888205849018E-002   3.9515698014230008E-002   0.0000000000000000     
   3.8403684242506383E-002   4.4220002929149391E-002   0.0000000000000000     
   4.0933915923821951E-002   4.9121586424481042E-002   0.0000000000000000     
   4.3388583249795713E-002   5.4220448500224935E-002   0.0000000000000000     
   4.5767686220427685E-002   5.9516589156381083E-002   0.0000000000000000     
   6.5309476478083731E-002   6.2786176414850597E-002   0.0000000000000000     
   6.8362043940174699E-002   6.8177707185567191E-002   0.0000000000000000     
   7.1326483331267426E-002   7.3746525876283164E-002   0.0000000000000000     
   7.4202794651361897E-002   7.9492632486998546E-002   0.0000000000000000     
   7.6990977900458113E-002   8.5416027017713309E-002   0.0000000000000000     
   6.0136903302570682E-002   6.1889508160900178E-002   0.0000000000000000     
   6.3005472575001109E-002   6.7304739415406933E-002   0.0000000000000000     
   6.5790564630144807E-002   7.2899600741573020E-002   0.0000000000000000     
   6.8492179468001804E-002   7.8674092139398466E-002   0.0000000000000000     
   7.1110317088572100E-002   8.4628213608883202E-002   0.0000000000000000     
   5.5155747201123664E-002   6.1045687533171786E-002   0.0000000000000000     
   5.7838666379733533E-002   6.6484468391172613E-002   0.0000000000000000     
   6.0442794132636216E-002   7.2104327877298993E-002   0.0000000000000000     
   6.2968130459831684E-002   7.7905265991550898E-002   0.0000000000000000     
   6.5414675361319952E-002   8.3887282733928356E-002   0.0000000000000000     
   5.0366008173742663E-002   6.0254714531665421E-002   0.0000000000000000     
   5.2861625354372034E-002   6.5716894112864216E-002   0.0000000000000000     
   5.5283171838741672E-002   7.1360707283461028E-002   0.0000000000000000     
   5.7630647626851557E-002   7.7186154043455898E-002   0.0000000000000000     
   5.9904052718701695E-002   8.3193234392848758E-002   0.0000000000000000     
   4.5767686220427685E-002   5.9516589156381083E-002   0.0000000000000000     
   4.8074349498916577E-002   6.5002016580481756E-002   0.0000000000000000     
   5.0311697748461164E-002   7.0668738960059180E-002   0.0000000000000000     
   5.2479730969061410E-002   7.6516756295113411E-002   0.0000000000000000     
   5.4578449160717316E-002   8.2546068585644394E-002   0.0000000000000000     
   7.6990977900458113E-002   8.5416027017713309E-002   0.0000000000000000     
   7.9680826863855414E-002   9.1507701589277152E-002   0.0000000000000000     
   8.2262135326853128E-002   9.7758648322539790E-002   0.0000000000000000     
   8.4734903289451269E-002  0.10416886721750120        0.0000000000000000     
   8.7099130751649795E-002  0.11073835827416140        0.0000000000000000     
   7.1110317088572100E-002   8.4628213608883202E-002   0.0000000000000000     
   7.3635477952804534E-002   9.0751115626993478E-002   0.0000000000000000     
   7.6058162521648001E-002   9.7031948670695464E-002   0.0000000000000000     
   7.8378370795102528E-002  0.10347071273998916        0.0000000000000000     
   8.0596102773168060E-002  0.11006740783487456        0.0000000000000000     
   6.5414675361319952E-002   8.3887282733928356E-002   0.0000000000000000     
   6.7773761514694927E-002   9.0038378621764226E-002   0.0000000000000000     
   7.0036721597550533E-002   9.6346554172391380E-002   0.0000000000000000     
   7.2203555609886755E-002  0.10281180938580980        0.0000000000000000     
   7.4274263551703620E-002  0.10943414426201950        0.0000000000000000     
   5.9904052718701695E-002   8.3193234392848758E-002   0.0000000000000000     
   6.2095677549526572E-002   8.9369490573589394E-002   0.0000000000000000     
   6.4197812554560654E-002   9.5702464827627523E-002   0.0000000000000000     
   6.6210457733803948E-002  0.10219215715496313        0.0000000000000000     
   6.8133613087256462E-002  0.10883856755559626        0.0000000000000000     
   5.4578449160717316E-002   8.2546068585644394E-002   0.0000000000000000     
   5.6601226057299461E-002   8.8744451482468956E-002   0.0000000000000000     
   5.8541435392678393E-002   9.5099680636403866E-002   0.0000000000000000     
   6.0399077166854102E-002  0.10161175604744915        0.0000000000000000     
   6.2174151379826584E-002  0.10828067771560480        0.0000000000000000     
   8.7099130751649795E-002  0.11073835827416140        0.0000000000000000     
   8.9371285091327801E-002  0.11745436950239488        0.0000000000000000     
   9.1567833686364286E-002  0.12430414891207611        0.0000000000000000     
   9.3688776536759277E-002  0.13128769650320513        0.0000000000000000     
   9.5734113642512775E-002  0.13840501227578189        0.0000000000000000     
   8.0596102773168060E-002  0.11006740783487456        0.0000000000000000     
   8.2728001887537830E-002  0.11681063176718122        0.0000000000000000     
   8.4790711569905017E-002  0.12368898234873871        0.0000000000000000     
   8.6784231820269619E-002  0.13070245957954701        0.0000000000000000     
   8.8708562638631638E-002  0.13785106345960613        0.0000000000000000     
   7.4274263551703620E-002  0.10943414426201950        0.0000000000000000     
   7.6264893258058408E-002  0.11620280481075684        0.0000000000000000     
   7.8191492564008383E-002  0.12310703704175806        0.0000000000000000     
   8.0054061469553545E-002  0.13014684095502316        0.0000000000000000     
   8.1852599974693907E-002  0.13732221655055221        0.0000000000000000     
   6.8133613087256462E-002  0.10883856755559626        0.0000000000000000     
   6.9981959202889493E-002  0.11563088863312165        0.0000000000000000     
   7.1770176668674343E-002  0.12255831299113409        0.0000000000000000     
   7.3498265484611053E-002  0.12962084062963358        0.0000000000000000     
   7.5166225650699567E-002  0.13681847154862012        0.0000000000000000     
   6.2174151379826584E-002  0.10828067771560480        0.0000000000000000     
   6.3879199722031127E-002  0.11509488323427572        0.0000000000000000     
   6.5526763883902980E-002  0.12204281019686687        0.0000000000000000     
   6.7116843865442144E-002  0.12912445860337829        0.0000000000000000     
   6.8649439666648632E-002  0.13633982845380987        0.0000000000000000     
   9.5734113642512775E-002  0.13840501227578189        0.0000000000000000     
   9.7676474531126975E-002  0.14563489645657690        0.0000000000000000     
   9.9488488730104102E-002  0.15295614927236073        0.0000000000000000     
  0.10117015623944416       0.16036877072313335        0.0000000000000000     
  0.10272147705914716       0.16787276080889474        0.0000000000000000     
   8.8708562638631638E-002  0.13785106345960613        0.0000000000000000     
   9.0536545586867856E-002  0.14511938846380640        0.0000000000000000     
   9.2241022226855054E-002  0.15249202906703807        0.0000000000000000     
   9.3821992558593234E-002  0.15996898526930128        0.0000000000000000     
   9.5279456582082409E-002  0.16755025707059595        0.0000000000000000     
   8.1852599974693907E-002  0.13732221655055221        0.0000000000000000     
   8.3561052295629476E-002  0.14462125308684909        0.0000000000000000     
   8.5153362648560230E-002  0.15203203982241786        0.0000000000000000     
   8.6629531033486196E-002  0.15955457675725843        0.0000000000000000     
   8.7989557450407374E-002  0.16718886389137089        0.0000000000000000     
   7.5166225650699567E-002  0.13681847154862012        0.0000000000000000     
   7.6749994657411794E-002  0.14414049032570514        0.0000000000000000     
   7.8225509995219628E-002  0.15157618153850000        0.0000000000000000     
   7.9592771664123041E-002  0.15912554518700481        0.0000000000000000     
   8.0851779664122048E-002  0.16678858127121951        0.0000000000000000     
   6.8649439666648632E-002  0.13633982845380987        0.0000000000000000     
   7.0103372672214850E-002  0.14367710018037441        0.0000000000000000     
   7.1457464266833221E-002  0.15112445421528461        0.0000000000000000     
   7.2711714450503770E-002  0.15868189055854046        0.0000000000000000     
   7.3866123223226457E-002  0.16634940921014191        0.0000000000000000     
   0.0000000000000000        0.0000000000000000        0.0000000000000000     
   2.8800818785684342E-003   1.7448366424060344E-003   0.0000000000000000     
   5.8726572424836884E-003   3.8646239689655651E-003   0.0000000000000000     
   8.9777260917457639E-003   6.3593619796785917E-003   0.0000000000000000     
   1.2195288426354658E-002   9.2290506745451150E-003   0.0000000000000000     
   0.0000000000000000        0.0000000000000000        0.0000000000000000     
   2.6103287747800737E-003   1.5889203873820602E-003   0.0000000000000000     
   5.2897294479801295E-003   3.5566868817024522E-003   0.0000000000000000     
   8.0382020196001682E-003   5.9032994829611744E-003   0.0000000000000000     
   1.0855746489640189E-002   8.6287581911582301E-003   0.0000000000000000     
   0.0000000000000000        0.0000000000000000        0.0000000000000000     
   2.3401181242585704E-003   1.4589442018376002E-003   0.0000000000000000     
   4.7202031469965331E-003   3.2997931694982523E-003   0.0000000000000000     
   7.1402550682138884E-003   5.5225469029819571E-003   0.0000000000000000     
   9.6002738879106351E-003   8.1272054022887147E-003   0.0000000000000000     
   0.0000000000000000        0.0000000000000000        0.0000000000000000     
   2.0694499270039234E-003   1.3549080857726537E-003   0.0000000000000000     
   4.1640783395328991E-003   3.0939428323529658E-003   0.0000000000000000     
   6.2838852375869244E-003   5.2171042397409374E-003   0.0000000000000000     
   8.4288706211660003E-003   7.7243923079365661E-003   0.0000000000000000     
   0.0000000000000000        0.0000000000000000        0.0000000000000000     
   1.7983241830161339E-003   1.2768120391872220E-003   0.0000000000000000     
   3.6213550255892253E-003   2.9391358702665934E-003   0.0000000000000000     
   5.4690925277192746E-003   4.9869714932381142E-003   0.0000000000000000     
   7.3415366894062821E-003   7.4203189081017860E-003   0.0000000000000000     
   1.2195288426354658E-002   9.2290506745451150E-003   0.0000000000000000     
   1.5427615906360211E-002   1.2371600082382094E-002   0.0000000000000000     
   1.8576980191812267E-002   1.5684920232006499E-002   0.0000000000000000     
   2.1643381282710820E-002   1.9169011123418320E-002   0.0000000000000000     
   2.4626819179055872E-002   2.2823872756617566E-002   0.0000000000000000     
   1.0855746489640189E-002   8.6287581911582301E-003   0.0000000000000000     
   1.3689011387006358E-002   1.1650763076130357E-002   0.0000000000000000     
   1.6484645240604844E-002   1.4887014207714296E-002   0.0000000000000000     
   1.9242648050435646E-002   1.8337511585910054E-002   0.0000000000000000     
   2.1963019816498761E-002   2.2002255210717615E-002   0.0000000000000000     
   9.6002738879106351E-003   8.1272054022887147E-003   0.0000000000000000     
   1.2076703106548251E-002   1.1046336196341187E-002   0.0000000000000000     
   1.4545986224588208E-002   1.4212506814062038E-002   0.0000000000000000     
   1.7008123242030507E-002   1.7625717255451270E-002   0.0000000000000000     
   1.9463114158875153E-002   2.1285967520508882E-002   0.0000000000000000     
   8.4288706211660003E-003   7.7243923079365661E-003   0.0000000000000000     
   1.0590691064985893E-002   1.0558319443014585E-002   0.0000000000000000     
   1.2761003143762361E-002   1.3661398051049722E-002   0.0000000000000000     
   1.4939806857495408E-002   1.7033628132041984E-002   0.0000000000000000     
   1.7127102206185036E-002   2.0675009685991362E-002   0.0000000000000000     
   7.3415366894062821E-003   7.4203189081017860E-003   0.0000000000000000     
   9.2309752623192798E-003   1.0186712816150549E-002   0.0000000000000000     
   1.1129695998127302E-002   1.3233687918677350E-002   0.0000000000000000     
   1.3037698896830346E-002   1.6561244215682183E-002   0.0000000000000000     
   1.4954983958428415E-002   2.0169381707165056E-002   0.0000000000000000     
   2.4626819179055872E-002   2.2823872756617566E-002   0.0000000000000000     
   2.7531478217531668E-002   2.6672297088288058E-002   0.0000000000000000     