 <VTKFile type="UnstructuredGrid"  version="0.1"   >
 <UnstructuredGrid>
 <Piece  NumberOfPoints="          1600 "  NumberOfCells="         1024 ">
 <Points>
 <DataArray  type="Float64" NumberOfComponents="3"  format="ascii" >
   0.0000000000000000        0.0000000000000000        0.0000000000000000     
   3.1250000000000000E-002   0.0000000000000000        0.0000000000000000     
   6.2500000000000000E-002   0.0000000000000000        0.0000000000000000     
   9.3750000000000000E-002   0.0000000000000000        0.0000000000000000     
  0.12500000000000000        0.0000000000000000        0.0000000000000000     
   0.0000000000000000        3.1250000000000000E-002   0.0000000000000000     
   3.1250000000000000E-002   3.1250000000000000E-002   0.0000000000000000     
   6.2500000000000000E-002   3.1250000000000000E-002   0.0000000000000000     
   9.3750000000000000E-002   3.1250000000000000E-002   0.0000000000000000     
  0.12500000000000000        3.1250000000000000E-002   0.0000000000000000     
   0.0000000000000000        6.2500000000000000E-002   0.0000000000000000     
   3.1250000000000000E-002   6.2500000000000000E-002   0.0000000000000000     
   6.2500000000000000E-002   6.2500000000000000E-002   0.0000000000000000     
   9.3750000000000000E-002   6.2500000000000000E-002   0.0000000000000000     
  0.12500000000000000        6.2500000000000000E-002   0.0000000000000000     
   0.0000000000000000        9.3750000000000000E-002   0.0000000000000000     
   3.1250000000000000E-002   9.3750000000000000E-002   0.0000000000000000     
   6.2500000000000000E-002   9.3750000000000000E-002   0.0000000000000000     
   9.3750000000000000E-002   9.3750000000000000E-002   0.0000000000000000     
  0.12500000000000000        9.3750000000000000E-002   0.0000000000000000     
   0.0000000000000000       0.12500000000000000        0.0000000000000000     
   3.1250000000000000E-002  0.12500000000000000        0.0000000000000000     
   6.2500000000000000E-002  0.12500000000000000        0.0000000000000000     
   9.3750000000000000E-002  0.12500000000000000        0.0000000000000000     
  0.12500000000000000       0.12500000000000000        0.0000000000000000     
  0.12500000000000000        0.0000000000000000        0.0000000000000000     
  0.15625000000000000        0.0000000000000000        0.0000000000000000     
  0.18750000000000000        0.0000000000000000        0.0000000000000000     
  0.21875000000000000        0.0000000000000000        0.0000000000000000     
  0.25000000000000000        0.0000000000000000        0.0000000000000000     
  0.12500000000000000        3.1250000000000000E-002   0.0000000000000000     
  0.15625000000000000        3.1250000000000000E-002   0.0000000000000000     
  0.18750000000000000        3.1250000000000000E-002   0.0000000000000000     
  0.21875000000000000        3.1250000000000000E-002   0.0000000000000000     
  0.25000000000000000        3.1250000000000000E-002   0.0000000000000000     
  0.12500000000000000        6.2500000000000000E-002   0.0000000000000000     
  0.15625000000000000        6.2500000000000000E-002   0.0000000000000000     
  0.18750000000000000        6.2500000000000000E-002   0.0000000000000000     
  0.21875000000000000        6.2500000000000000E-002   0.0000000000000000     
  0.25000000000000000        6.2500000000000000E-002   0.0000000000000000     
  0.12500000000000000        9.3750000000000000E-002   0.0000000000000000     
  0.15625000000000000        9.3750000000000000E-002   0.0000000000000000     
  0.18750000000000000        9.3750000000000000E-002   0.0000000000000000     
  0.21875000000000000        9.3750000000000000E-002   0.0000000000000000     
  0.25000000000000000        9.3750000000000000E-002   0.0000000000000000     
  0.12500000000000000       0.12500000000000000        0.0000000000000000     
  0.15625000000000000       0.12500000000000000        0.0000000000000000     
  0.18750000000000000       0.12500000000000000        0.0000000000000000     
  0.21875000000000000       0.12500000000000000        0.0000000000000000     
  0.25000000000000000       0.12500000000000000        0.0000000000000000     
  0.25000000000000000        0.0000000000000000        0.0000000000000000     
  0.28125000000000000        0.0000000000000000        0.0000000000000000     
  0.31250000000000000        0.0000000000000000        0.0000000000000000     
  0.34375000000000000        0.0000000000000000        0.0000000000000000     
  0.37500000000000000        0.0000000000000000        0.0000000000000000     
  0.25000000000000000        3.1250000000000000E-002   0.0000000000000000     
  0.28125000000000000        3.1250000000000000E-002   0.0000000000000000     
  0.31250000000000000        3.1250000000000000E-002   0.0000000000000000     
  0.34375000000000000        3.1250000000000000E-002   0.0000000000000000     
  0.37500000000000000        3.1250000000000000E-002   0.0000000000000000     
  0.25000000000000000        6.2500000000000000E-002   0.0000000000000000     
  0.28125000000000000        6.2500000000000000E-002   0.0000000000000000     
  0.31250000000000000        6.2500000000000000E-002   0.0000000000000000     
  0.34375000000000000        6.2500000000000000E-002   0.0000000000000000     
  0.37500000000000000        6.2500000000000000E-002   0.0000000000000000     
  0.25000000000000000        9.3750000000000000E-002   0.0000000000000000     
  0.28125000000000000        9.3750000000000000E-002   0.0000000000000000     
  0.31250000000000000        9.3750000000000000E-002   0.0000000000000000     
  0.34375000000000000        9.3750000000000000E-002   0.0000000000000000     
  0.37500000000000000        9.3750000000000000E-002   0.0000000000000000     
  0.25000000000000000       0.12500000000000000        0.0000000000000000     
  0.28125000000000000       0.12500000000000000        0.0000000000000000     
  0.31250000000000000       0.12500000000000000        0.0000000000000000     
  0.34375000000000000       0.12500000000000000        0.0000000000000000     
  0.37500000000000000       0.12500000000000000        0.0000000000000000     
  0.37500000000000000        0.0000000000000000        0.0000000000000000     
  0.40625000000000000        0.0000000000000000        0.0000000000000000     
  0.43750000000000000        0.0000000000000000        0.0000000000000000     
  0.46875000000000000        0.0000000000000000        0.0000000000000000     
  0.50000000000000000        0.0000000000000000        0.0000000000000000     
  0.37500000000000000        3.1250000000000000E-002   0.0000000000000000     
  0.40625000000000000        3.1250000000000000E-002   0.0000000000000000     
  0.43750000000000000        3.1250000000000000E-002   0.0000000000000000     
  0.46875000000000000        3.1250000000000000E-002   0.0000000000000000     
  0.50000000000000000        3.1250000000000000E-002   0.0000000000000000     
  0.37500000000000000        6.2500000000000000E-002   0.0000000000000000     
  0.40625000000000000        6.2500000000000000E-002   0.0000000000000000     
  0.43750000000000000        6.2500000000000000E-002   0.0000000000000000     
  0.46875000000000000        6.2500000000000000E-002   0.0000000000000000     
  0.50000000000000000        6.2500000000000000E-002   0.0000000000000000     
  0.37500000000000000        9.3750000000000000E-002   0.0000000000000000     
  0.40625000000000000        9.3750000000000000E-002   0.0000000000000000     
  0.43750000000000000        9.3750000000000000E-002   0.0000000000000000     
  0.46875000000000000        9.3750000000000000E-002   0.0000000000000000     
  0.50000000000000000        9.3750000000000000E-002   0.0000000000000000     
  0.37500000000000000       0.12500000000000000        0.0000000000000000     
  0.40625000000000000       0.12500000000000000        0.0000000000000000     
  0.43750000000000000       0.12500000000000000        0.0000000000000000     
  0.46875000000000000       0.12500000000000000        0.0000000000000000     
  0.50000000000000000       0.12500000000000000        0.0000000000000000     
  0.50000000000000000        0.0000000000000000        0.0000000000000000     
  0.53125000000000000        0.0000000000000000        0.0000000000000000     
  0.56250000000000000        0.0000000000000000        0.0000000000000000     
  0.59375000000000000        0.0000000000000000        0.0000000000000000     
  0.62500000000000000        0.0000000000000000        0.0000000000000000     
  0.50000000000000000        3.1250000000000000E-002   0.0000000000000000     
  0.53125000000000000        3.1250000000000000E-002   0.0000000000000000     
  0.56250000000000000        3.1250000000000000E-002   0.0000000000000000     
  0.59375000000000000        3.1250000000000000E-002   0.0000000000000000     
  0.62500000000000000        3.1250000000000000E-002   0.0000000000000000     
  0.50000000000000000        6.2500000000000000E-002   0.0000000000000000     
  0.53125000000000000        6.2500000000000000E-002   0.0000000000000000     
  0.56250000000000000        6.2500000000000000E-002   0.0000000000000000     
  0.59375000000000000        6.2500000000000000E-002   0.0000000000000000     
  0.62500000000000000        6.2500000000000000E-002   0.0000000000000000     
  0.50000000000000000        9.3750000000000000E-002   0.0000000000000000     
  0.53125000000000000        9.3750000000000000E-002   0.0000000000000000     
  0.56250000000000000        9.3750000000000000E-002   0.0000000000000000     
  0.59375000000000000        9.3750000000000000E-002   0.0000000000000000     
  0.62500000000000000        9.3750000000000000E-002   0.0000000000000000     
  0.50000000000000000       0.12500000000000000        0.0000000000000000     
  0.53125000000000000       0.12500000000000000        0.0000000000000000     
  0.56250000000000000       0.12500000000000000        0.0000000000000000     
[...]
 <PointData>
 <DataArray  type="Float64" Name="disp" NumberOfComponents="3" format="ascii">
   0.0000000000000000        0.0000000000000000        0.0000000000000000     
   6.0958536104516242E-003   3.7903288333365902E-003   0.0000000000000000     
   1.1665856670346482E-002   7.3237084900157640E-003   0.0000000000000000     
   1.6710009179684574E-002   1.0600138970037521E-002   0.0000000000000000     
   2.1228311138465898E-002   1.3619620273401863E-002   0.0000000000000000     
   0.0000000000000000        0.0000000000000000        0.0000000000000000     
   4.8910891851516106E-003   3.0220958247073717E-003   0.0000000000000000     
   9.5735453009994538E-003   6.0604594486241992E-003   0.0000000000000000     
   1.4047368347543530E-002   9.1150908717504836E-003   0.0000000000000000     
   1.8312558324783835E-002   1.2185990094086226E-002   0.0000000000000000     
   0.0000000000000000        0.0000000000000000        0.0000000000000000     
   3.9535381089572524E-003   2.4251041332843471E-003   0.0000000000000000     
   7.9105738659518265E-003   5.0628634919716491E-003   0.0000000000000000     
   1.1871107270983722E-002   7.9132780760619061E-003   0.0000000000000000     
   1.5835138324052943E-002   1.0976347885555116E-002   0.0000000000000000     
   0.0000000000000000        0.0000000000000000        0.0000000000000000     
   3.2832003818685485E-003   1.9993537590675165E-003   0.0000000000000000     
   6.6769423652035991E-003   4.3309206200581110E-003   0.0000000000000000     
   1.0181225950005151E-002   6.9947005829717841E-003   0.0000000000000000     
   1.3796051136273203E-002   9.9906936478085379E-003   0.0000000000000000     
   0.0000000000000000        0.0000000000000000        0.0000000000000000     
   2.8800760038854992E-003   1.7448447020568798E-003   0.0000000000000000     
   5.8726507987547716E-003   3.8646308328835876E-003   0.0000000000000000     
   8.9777243846078172E-003   6.3593583924801238E-003   0.0000000000000000     
   1.2195296761444638E-002   9.2290273808464870E-003   0.0000000000000000     
   2.1228311138465898E-002   1.3619620273401863E-002   0.0000000000000000     
   2.5433506986740843E-002   1.6612650099665945E-002   0.0000000000000000     
   2.9538341164559799E-002   1.9809726148386927E-002   0.0000000000000000     
   3.3542813671922765E-002   2.3210848419564809E-002   0.0000000000000000     
   3.7446924508829735E-002   2.6816016913199594E-002   0.0000000000000000     
   1.8312558324783835E-002   1.2185990094086226E-002   0.0000000000000000     
   2.2407268422066355E-002   1.5341463837194980E-002   0.0000000000000000     
   2.6369651828737063E-002   1.8649818822640309E-002   0.0000000000000000     
   3.0199708544795971E-002   2.2111055050422206E-002   0.0000000000000000     
   3.3897438570243063E-002   2.5725172520540678E-002   0.0000000000000000     
   1.5835138324052943E-002   1.0976347885555116E-002   0.0000000000000000     
   1.9730876899795999E-002   1.4210887594126998E-002   0.0000000000000000     
   2.3486532872849429E-002   1.7575711875453270E-002   0.0000000000000000     
   2.7102106243213232E-002   2.1070820729533934E-002   0.0000000000000000     
   3.0577597010887397E-002   2.4696214156368981E-002   0.0000000000000000     
   1.3796051136273203E-002   9.9906936478085379E-003   0.0000000000000000     
   1.7404332419929777E-002   1.3220921370462001E-002   0.0000000000000000     
   2.0888984296896895E-002   1.6587405306825821E-002   0.0000000000000000     
   2.4250006767174540E-002   2.0090145456899990E-002   0.0000000000000000     
   2.7487399830762732E-002   2.3729141820684509E-002   0.0000000000000000     
   1.2195296761444638E-002   9.2290273808464870E-003   0.0000000000000000     
   1.5427634982467693E-002   1.2371565166199994E-002   0.0000000000000000     
   1.8577006100879447E-002   1.5684899116757956E-002   0.0000000000000000     
   2.1643410116679907E-002   1.9169029232520379E-002   0.0000000000000000     
   2.4626847029869069E-002   2.2823955513487260E-002   0.0000000000000000     
   3.7446924508829735E-002   2.6816016913199594E-002   0.0000000000000000     
   4.1255395307779524E-002   3.0620781366866582E-002   0.0000000000000000     
   4.4972947701270923E-002   3.4620691518141088E-002   0.0000000000000000     
   4.8599581689303950E-002   3.8815747367023090E-002   0.0000000000000000     
   5.2135297271878586E-002   4.3205948913512614E-002   0.0000000000000000     
   3.3897438570243063E-002   2.5725172520540678E-002   0.0000000000000000     
   3.7486167698645032E-002   2.9521064661877577E-002   0.0000000000000000     
   4.0989221723568538E-002   3.3527624903314762E-002   0.0000000000000000     
   4.4406600645013609E-002   3.7744853244852238E-002   0.0000000000000000     
   4.7738304462980226E-002   4.2172749686489999E-002   0.0000000000000000     
   3.0577597010887397E-002   2.4696214156368981E-002   0.0000000000000000     
   3.3942441172111877E-002   2.8496431420833003E-002   0.0000000000000000     
   3.7226074723126640E-002   3.2516011787800572E-002   0.0000000000000000     
   4.0428497663931660E-002   3.6754955257271689E-002   0.0000000000000000     
   4.3549709994526967E-002   4.1213261829246367E-002   0.0000000000000000     
   2.7487399830762732E-002   2.3729141820684509E-002   0.0000000000000000     
   3.0624215728180085E-002   2.7546881643732851E-002   0.0000000000000000     
   3.3683506699945201E-002   3.1585852171598504E-002   0.0000000000000000     
   3.6665272746058124E-002   3.5846053404281444E-002   0.0000000000000000     
   3.9569513866518823E-002   4.0327485341781703E-002   0.0000000000000000     
   2.4626847029869069E-002   2.2823955513487260E-002   0.0000000000000000     
   2.7531491366849625E-002   2.6672415330577133E-002   0.0000000000000000     
   3.0361517654024259E-002   3.0737146054708554E-002   0.0000000000000000     
   3.3116925891392972E-002   3.5018147685881518E-002   0.0000000000000000     
   3.5797716078955766E-002   3.9515420224096015E-002   0.0000000000000000     
   5.2135297271878586E-002   4.3205948913512614E-002   0.0000000000000000     
   5.5576388601205673E-002   4.7795524349724783E-002   0.0000000000000000     
   5.8919149829496018E-002   5.2588701867774743E-002   0.0000000000000000     
   6.2163580956749648E-002   5.7585481467662493E-002   0.0000000000000000     
   6.5309681982966536E-002   6.2785863149388027E-002   0.0000000000000000     
   4.7738304462980226E-002   4.2172749686489999E-002   0.0000000000000000     
   5.0979911345527984E-002   4.6804969976916209E-002   0.0000000000000000     
   5.4126999460716474E-002   5.1635169864819044E-002   0.0000000000000000     
   5.7179568808545689E-002   5.6663349350198476E-002   0.0000000000000000     
   6.0137619389015649E-002   6.1889508433054539E-002   0.0000000000000000     
   4.3549709994526967E-002   4.1213261829246367E-002   0.0000000000000000     
   4.6585606842105942E-002   4.5878801064282874E-002   0.0000000000000000     
   4.9532083333861984E-002   5.0739442522939486E-002   0.0000000000000000     
   5.2389139469795100E-002   5.5795186205216202E-002   0.0000000000000000     
   5.5156775249905268E-002   6.1046032111113042E-002   0.0000000000000000     
   3.9569513866518823E-002   4.0327485341781703E-002   0.0000000000000000     
   4.2393475090939541E-002   4.5017017611824743E-002   0.0000000000000000     
   4.5134401448932542E-002   4.9901519842136068E-002   0.0000000000000000     
   4.7792292940497832E-002   5.4980992032715663E-002   0.0000000000000000     
   5.0367149565635386E-002   6.0255434183563543E-002   0.0000000000000000     
   3.5797716078955766E-002   3.9515420224096015E-002   0.0000000000000000     
   3.8403516092028786E-002   4.4219619619541850E-002   0.0000000000000000     
   4.0933953805928167E-002   4.9121401822408796E-002   0.0000000000000000     
   4.3389029220653907E-002   5.4220766832696859E-002   0.0000000000000000     
   4.5768742336206009E-002   5.9517714650406041E-002   0.0000000000000000     
   6.5309681982966536E-002   6.2785863149388027E-002   0.0000000000000000     
   6.8362347860078748E-002   6.8176754133811412E-002   0.0000000000000000     
   7.1326473540018351E-002   7.3745061641792731E-002   0.0000000000000000     
   7.4202059022785344E-002   7.9490785673331954E-002   0.0000000000000000     
   7.6989104308379713E-002   8.5413926228429110E-002   0.0000000000000000     
   6.0137619389015649E-002   6.1889508433054539E-002   0.0000000000000000     
   6.3006406835374118E-002   6.7304406442701581E-002   0.0000000000000000     
   6.5791186780868857E-002   7.2898802708454002E-002   0.0000000000000000     
   6.8491959225499888E-002   7.8672697230311811E-002   0.0000000000000000     
   7.1108724169267196E-002   8.4626090008275007E-002   0.0000000000000000     
   5.5156775249905268E-002   6.1046032111113042E-002   0.0000000000000000     
   5.7839999120055698E-002   6.6484766225734085E-002   0.0000000000000000     
   6.0443819526109555E-002   7.2104174534183413E-002   0.0000000000000000     
   6.2968236468066832E-002   7.7904257036461033E-002   0.0000000000000000     
   6.5413249945927579E-002   8.3885013732566974E-002   0.0000000000000000     
   5.0367149565635386E-002   6.0255434183563543E-002   0.0000000000000000     
   5.2863124714123508E-002   6.5717833482908897E-002   0.0000000000000000     
   5.5284371775740450E-002   7.1361177118980920E-002   0.0000000000000000     
   5.7630890750486254E-002   7.7185465091779620E-002   0.0000000000000000     
   5.9902681638360870E-002   8.3190697401304997E-002   0.0000000000000000     
   4.5768742336206009E-002   5.9517714650406041E-002   0.0000000000000000     
   4.8075783617577542E-002   6.5003608214226030E-002   0.0000000000000000     
   5.0312843529761564E-002   7.0669810462846538E-002   0.0000000000000000     
   5.2479922072758069E-002   7.6516321396267573E-002   0.0000000000000000     
   5.4577019246567063E-002   8.2543141014489119E-002   0.0000000000000000     
   7.6989104308379713E-002   8.5413926228429110E-002   0.0000000000000000     
   7.9679054298124524E-002   9.1505591066882663E-002   0.0000000000000000     
   8.2263353893342800E-002   9.7756887948491050E-002   0.0000000000000000     
   8.4742003094034554E-002  0.10416781687325431        0.0000000000000000     
   8.7115001900199787E-002  0.11073837784117242        0.0000000000000000     
   7.1108724169267196E-002   8.4626090008275007E-002   0.0000000000000000     
   7.3633664897727005E-002   9.0748521852923536E-002   0.0000000000000000     
   7.6058964696435527E-002   9.7029533574837387E-002   0.0000000000000000     
   7.8384623565392775E-002  0.10346912517401656        0.0000000000000000     
   8.0610641504598721E-002  0.11006729665046107        0.0000000000000000     
   6.5413249945927579E-002   8.3885013732566974E-002   0.0000000000000000     
   6.7771881947491786E-002   9.0035146795589743E-002   0.0000000000000000     
   7.0037154460559525E-002   9.6343358398617907E-002   0.0000000000000000     
   7.2209067485130785E-002  0.10280964854165152        0.0000000000000000     
   7.4287621021205563E-002  0.10943401722469052        0.0000000000000000     
   5.9902681638360870E-002   8.3190697401304997E-002   0.0000000000000000     
   6.2093705447418865E-002   8.9365465894881257E-002   0.0000000000000000     
   6.4197923185714767E-002   9.5698362419832678E-002   0.0000000000000000     
   6.6215334853248597E-002  0.10218938697615919        0.0000000000000000     
   6.8145940450020343E-002  0.10883853956386084        0.0000000000000000     
   5.4577019246567063E-002   8.2543141014489119E-002   0.0000000000000000     
   5.6599135397508243E-002   8.8739479150798134E-002   0.0000000000000000     
   5.8541270871901287E-002   9.5094545638481617E-002   0.0000000000000000     
   6.0403425669746214E-002  0.10160834047753958        0.0000000000000000     
   6.2185599791042996E-002  0.10828086366797199        0.0000000000000000     
   8.7115001900199787E-002  0.11073837784117242        0.0000000000000000     
   8.9392506136386135E-002  0.11745500399439068        0.0000000000000000     
   9.1584671627141262E-002  0.12430412847505438        0.0000000000000000     
   9.3691498372465154E-002  0.13128575128316353        0.0000000000000000     
   9.5712986372357811E-002  0.13839987241871812        0.0000000000000000     
   8.0610641504598721E-002  0.11006729665046107        0.0000000000000000     
   8.2747585890878009E-002  0.11681166960886762        0.0000000000000000     
   8.4806024101055200E-002  0.12368986565393299        0.0000000000000000     
   8.6785956135130335E-002  0.13070188478565717        0.0000000000000000     
   8.8687381993103387E-002  0.13784772700404010        0.0000000000000000     
   7.4287621021205563E-002  0.10943401722469052        0.0000000000000000     
   7.6283055394025773E-002  0.11620445749480783        0.0000000000000000     
   7.8205610928833269E-002  0.12310896239907633        0.0000000000000000     
   8.0055287625628024E-002  0.13014753193749604        0.0000000000000000     
   8.1832085484410080E-002  0.13732016611006692        0.0000000000000000     
   6.8145940450020343E-002  0.10883853956386084        0.0000000000000000     
   6.9998914645829441E-002  0.11563336765221136        0.0000000000000000     
   7.1783432110475415E-002  0.12256141871048448        0.0000000000000000     
   7.3499492843958195E-002  0.12962269273868024        0.0000000000000000     
   7.5147096846277864E-002  0.13681718973679863        0.0000000000000000     
   6.2185599791042996E-002  0.10828086366797199        0.0000000000000000     
   6.3895163646289027E-002  0.11509840008107816        0.0000000000000000     
   6.5539487645981664E-002  0.12204723458815742        0.0000000000000000     
   6.7118571790120915E-002  0.12912736718920972        0.0000000000000000     
   6.8632416078706751E-002  0.13633879788423511        0.0000000000000000     
   9.5712986372357811E-002  0.13839987241871812        0.0000000000000000     
   9.7637013001398640E-002  0.14562802208507791        0.0000000000000000     
   9.9451455634167005E-002  0.15295173048560270        0.0000000000000000     
  0.10115631427066295       0.16037099762029250        0.0000000000000000     
  0.10275158891088644       0.16788582348914727        0.0000000000000000     
   8.8687381993103387E-002  0.13784772700404010        0.0000000000000000     
   9.0498313160284394E-002  0.14511370692267964        0.0000000000000000     
   9.2206761121983380E-002  0.15248613915517348        0.0000000000000000     
   9.3812725878200318E-002  0.15996502370152166        0.0000000000000000     
   9.5316207428935235E-002  0.16755036056172415        0.0000000000000000     
   8.1832085484410080E-002  0.13732016611006692        0.0000000000000000     
   8.3524625398553043E-002  0.14461635765144262        0.0000000000000000     
   8.5121528261430518E-002  0.15202559929627663        0.0000000000000000     
   8.6622794073042492E-002  0.15954789104456901        0.0000000000000000     
   8.8028422833389006E-002  0.16718323289631973        0.0000000000000000     
   7.5147096846277864E-002  0.13681718973679863        0.0000000000000000     
   7.6715949716204546E-002  0.14413597427136685        0.0000000000000000     
   7.8195757052508419E-002  0.15157011090891215        0.0000000000000000     
   7.9586518855189484E-002  0.15911959964943456        0.0000000000000000     
   8.0888235124247782E-002  0.16678444049293401        0.0000000000000000     
   6.8632416078706751E-002  0.13633879788423511        0.0000000000000000     
   7.0072286113238916E-002  0.14367255678245233        0.0000000000000000     
   7.1429447495217097E-002  0.15111967399308002        0.0000000000000000     
   7.2703900224641307E-002  0.15868014951611822        0.0000000000000000     
   7.3895644301511534E-002  0.16635398335156698        0.0000000000000000     
   0.0000000000000000        0.0000000000000000        0.0000000000000000     
   2.8800760038854992E-003   1.7448447020568798E-003   0.0000000000000000     
   5.8726507987547716E-003   3.8646308328835876E-003   0.0000000000000000     
   8.9777243846078172E-003   6.3593583924801238E-003   0.0000000000000000     
   1.2195296761444638E-002   9.2290273808464870E-003   0.0000000000000000     
   0.0000000000000000        0.0000000000000000        0.0000000000000000     
   2.6103286699116156E-003   1.5889270482763332E-003   0.0000000000000000     
   5.2897290009641454E-003   3.5566904646393369E-003   0.0000000000000000     
   8.0382009931575897E-003   5.9032902490890110E-003   0.0000000000000000     
   1.0855744646491947E-002   8.6287264016253560E-003   0.0000000000000000     
   0.0000000000000000        0.0000000000000000        0.0000000000000000     
   2.3401220748504089E-003   1.4589508837497733E-003   0.0000000000000000     
   4.7202068061905217E-003   3.2997958495166201E-003   0.0000000000000000     
   7.1402541940203384E-003   5.5225348973005402E-003   0.0000000000000000     
   9.6002642383398590E-003   8.1271680271015334E-003   0.0000000000000000     
   0.0000000000000000        0.0000000000000000        0.0000000000000000     
   2.0694562187018799E-003   1.3549162084771991E-003   0.0000000000000000     
   4.1640842144339005E-003   3.0939469875154351E-003   0.0000000000000000     
   6.2838839871960633E-003   5.2170923371147072E-003   0.0000000000000000     
   8.4288555369883677E-003   7.7243522572750158E-003   0.0000000000000000     
   0.0000000000000000        0.0000000000000000        0.0000000000000000     
   1.7983311014660281E-003   1.2768230224586116E-003   0.0000000000000000     
   3.6213612256942836E-003   2.9391438786357839E-003   0.0000000000000000     
   5.4690903726847661E-003   4.9869625685315154E-003   0.0000000000000000     
   7.3415185424374769E-003   7.4202790921458085E-003   0.0000000000000000     
   1.2195296761444638E-002   9.2290273808464870E-003   0.0000000000000000     
   1.5427634982467693E-002   1.2371565166199994E-002   0.0000000000000000     
   1.8577006100879447E-002   1.5684899116757956E-002   0.0000000000000000     
   2.1643410116679907E-002   1.9169029232520379E-002   0.0000000000000000     
   2.4626847029869069E-002   2.2823955513487260E-002   0.0000000000000000     
   1.0855744646491947E-002   8.6287264016253560E-003   0.0000000000000000     
   1.3689011545248434E-002   1.1650719926586584E-002   0.0000000000000000     
   1.6484653273708266E-002   1.4886991828310910E-002   0.0000000000000000     
   1.9242669831871444E-002   1.8337542106798332E-002   0.0000000000000000     
   2.1963061219737959E-002   2.2002370762048855E-002   0.0000000000000000     
   9.6002642383398590E-003   8.1271680271015334E-003   0.0000000000000000     
   1.2076689066110705E-002   1.1046286596867393E-002   0.0000000000000000     
   1.4545980804294501E-002   1.4212481964545913E-002   0.0000000000000000     
   1.7008139452891244E-002   1.7625754130137092E-002   0.0000000000000000     
   1.9463165011900943E-002   2.1286103093640932E-002   0.0000000000000000     
   8.4288555369883677E-003   7.7243522572750158E-003   0.0000000000000000     
   1.0590667545054501E-002   1.0558265177042416E-002   0.0000000000000000     
   1.2760988692638154E-002   1.3661369525462959E-002   0.0000000000000000     
   1.4939818979739327E-002   1.7033665302536648E-002   0.0000000000000000     
   1.7127158406358017E-002   2.0675152508263482E-002   0.0000000000000000     
   7.3415185424374769E-003   7.4202790921458085E-003   0.0000000000000000     
   9.2309469820798275E-003   1.0186655667111659E-002   0.0000000000000000     
   1.1129676938739227E-002   1.3233654511062055E-002   0.0000000000000000     
   1.3037708412415682E-002   1.6561275623997007E-002   0.0000000000000000     
   1.4955041403109185E-002   2.0169519005916507E-002   0.0000000000000000     
   2.4626847029869069E-002   2.2823955513487260E-002   0.0000000000000000     
   2.7531491366849625E-002   2.6672415330577133E-002   0.0000000000000000     