 <VTKFile type="UnstructuredGrid"  version="0.1"   >
 <UnstructuredGrid>
 <Piece  NumberOfPoints="          1600 "  NumberOfCells="         1024 ">
 <Points>
 <DataArray  type="Float64" NumberOfComponents="3"  format="ascii" >
   0.0000000000000000        0.0000000000000000        0.0000000000000000     
   3.1250000000000000E-002   0.0000000000000000        0.0000000000000000     
   6.2500000000000000E-002   0.0000000000000000        0.0000000000000000     
   9.3750000000000000E-002   0.0000000000000000        0.0000000000000000     
  0.12500000000000000        0.0000000000000000        0.0000000000000000     
   0.0000000000000000        3.1250000000000000E-002   0.0000000000000000     
   3.1250000000000000E-002   3.1250000000000000E-002   0.0000000000000000     
   6.2500000000000000E-002   3.1250000000000000E-002   0.0000000000000000     
   9.3750000000000000E-002   3.1250000000000000E-002   0.0000000000000000     
  0.12500000000000000        3.1250000000000000E-002   0.0000000000000000     
   0.0000000000000000        6.2500000000000000E-002   0.0000000000000000     
   3.1250000000000000E-002   6.2500000000000000E-002   0.0000000000000000     
   6.2500000000000000E-002   6.2500000000000000E-002   0.0000000000000000     
   9.3750000000000000E-002   6.2500000000000000E-002   0.0000000000000000     
  0.12500000000000000        6.2500000000000000E-002   0.0000000000000000     
   0.0000000000000000        9.3750000000000000E-002   0.0000000000000000     
   3.1250000000000000E-002   9.3750000000000000E-002   0.0000000000000000     
   6.2500000000000000E-002   9.3750000000000000E-002   0.0000000000000000     
   9.3750000000000000E-002   9.3750000000000000E-002   0.0000000000000000     
  0.12500000000000000        9.3750000000000000E-002   0.0000000000000000     
   0.0000000000000000       0.12500000000000000        0.0000000000000000     
   3.1250000000000000E-002  0.12500000000000000        0.0000000000000000     
   6.2500000000000000E-002  0.12500000000000000        0.0000000000000000     
   9.3750000000000000E-002  0.12500000000000000        0.0000000000000000     
  0.12500000000000000       0.12500000000000000        0.0000000000000000     
  0.12500000000000000        0.0000000000000000        0.0000000000000000     
  0.15625000000000000        0.0000000000000000        0.0000000000000000     
  0.18750000000000000        0.0000000000000000        0.0000000000000000     
  0.21875000000000000        0.0000000000000000        0.0000000000000000     
  0.25000000000000000        0.0000000000000000        0.0000000000000000     
  0.12500000000000000        3.1250000000000000E-002   0.0000000000000000     
  0.15625000000000000        3.1250000000000000E-002   0.0000000000000000     
  0.18750000000000000        3.1250000000000000E-002   0.0000000000000000     
  0.21875000000000000        3.1250000000000000E-002   0.0000000000000000     
  0.25000000000000000        3.1250000000000000E-002   0.0000000000000000     
  0.12500000000000000        6.2500000000000000E-002   0.0000000000000000     
  0.15625000000000000        6.2500000000000000E-002   0.0000000000000000     
  0.18750000000000000        6.2500000000000000E-002   0.0000000000000000     
  0.21875000000000000        6.2500000000000000E-002   0.0000000000000000     
  0.25000000000000000        6.2500000000000000E-002   0.0000000000000000     
  0.12500000000000000        9.3750000000000000E-002   0.0000000000000000     
  0.15625000000000000        9.3750000000000000E-002   0.0000000000000000     
  0.18750000000000000        9.3750000000000000E-002   0.0000000000000000     
  0.21875000000000000        9.3750000000000000E-002   0.0000000000000000     
  0.25000000000000000        9.3750000000000000E-002   0.0000000000000000     
  0.12500000000000000       0.12500000000000000        0.0000000000000000     
  0.15625000000000000       0.12500000000000000        0.0000000000000000     
  0.18750000000000000       0.12500000000000000        0.0000000000000000     
  0.21875000000000000       0.12500000000000000        0.0000000000000000     
  0.25000000000000000       0.12500000000000000        0.0000000000000000     
  0.25000000000000000        0.0000000000000000        0.0000000000000000     
  0.28125000000000000        0.0000000000000000        0.0000000000000000     
  0.31250000000000000        0.0000000000000000        0.0000000000000000     
  0.34375000000000000        0.0000000000000000        0.0000000000000000     
  0.37500000000000000        0.0000000000000000        0.0000000000000000     
  0.25000000000000000        3.1250000000000000E-002   0.0000000000000000     
  0.28125000000000000        3.1250000000000000E-002   0.0000000000000000     
  0.31250000000000000        3.1250000000000000E-002   0.0000000000000000     
  0.34375000000000000        3.1250000000000000E-002   0.0000000000000000     
  0.37500000000000000        3.1250000000000000E-002   0.0000000000000000     
  0.25000000000000000        6.2500000000000000E-002   0.0000000000000000     
  0.28125000000000000        6.2500000000000000E-002   0.0000000000000000     
  0.31250000000000000        6.2500000000000000E-002   0.0000000000000000     
  0.34375000000000000        6.2500000000000000E-002   0.0000000000000000     
  0.37500000000000000        6.2500000000000000E-002   0.0000000000000000     
  0.25000000000000000        9.3750000000000000E-002   0.0000000000000000     
  0.28125000000000000        9.3750000000000000E-002   0.0000000000000000     
  0.31250000000000000        9.3750000000000000E-002   0.0000000000000000     
  0.34375000000000000        9.3750000000000000E-002   0.0000000000000000     
  0.37500000000000000        9.3750000000000000E-002   0.0000000000000000     
  0.25000000000000000       0.12500000000000000        0.0000000000000000     
  0.28125000000000000       0.12500000000000000        0.0000000000000000     
  0.31250000000000000       0.12500000000000000        0.0000000000000000     
  0.34375000000000000       0.12500000000000000        0.0000000000000000     
  0.37500000000000000       0.12500000000000000        0.0000000000000000     
  0.37500000000000000        0.0000000000000000        0.0000000000000000     
  0.40625000000000000        0.0000000000000000        0.0000000000000000     
  0.43750000000000000        0.0000000000000000        0.0000000000000000     
  0.46875000000000000        0.0000000000000000        0.0000000000000000     
  0.50000000000000000        0.0000000000000000        0.0000000000000000     
  0.37500000000000000        3.1250000000000000E-002   0.0000000000000000     
  0.40625000000000000        3.1250000000000000E-002   0.0000000000000000     
  0.43750000000000000        3.1250000000000000E-002   0.0000000000000000     
  0.46875000000000000        3.1250000000000000E-002   0.0000000000000000     
  0.50000000000000000        3.1250000000000000E-002   0.0000000000000000     
  0.37500000000000000        6.2500000000000000E-002   0.0000000000000000     
  0.40625000000000000        6.2500000000000000E-002   0.0000000000000000     
  0.43750000000000000        6.2500000000000000E-002   0.0000000000000000     
  0.46875000000000000        6.2500000000000000E-002   0.0000000000000000     
  0.50000000000000000        6.2500000000000000E-002   0.0000000000000000     
  0.37500000000000000        9.3750000000000000E-002   0.0000000000000000     
  0.40625000000000000        9.3750000000000000E-002   0.0000000000000000     
  0.43750000000000000        9.3750000000000000E-002   0.0000000000000000     
  0.46875000000000000        9.3750000000000000E-002   0.0000000000000000     
  0.50000000000000000        9.3750000000000000E-002   0.0000000000000000     
  0.37500000000000000       0.12500000000000000        0.0000000000000000     
  0.40625000000000000       0.12500000000000000        0.0000000000000000     
  0.43750000000000000       0.12500000000000000        0.0000000000000000     
  0.46875000000000000       0.12500000000000000        0.0000000000000000     
  0.50000000000000000       0.12500000000000000        0.0000000000000000     
  0.50000000000000000        0.0000000000000000        0.0000000000000000     
  0.53125000000000000        0.0000000000000000        0.0000000000000000     
  0.56250000000000000        0.0000000000000000        0.0000000000000000     
  0.59375000000000000        0.0000000000000000        0.0000000000000000     
  0.62500000000000000        0.0000000000000000        0.0000000000000000     
  0.50000000000000000        3.1250000000000000E-002   0.0000000000000000     
  0.53125000000000000        3.1250000000000000E-002   0.0000000000000000     
  0.56250000000000000        3.1250000000000000E-002   0.0000000000000000     
  0.59375000000000000        3.1250000000000000E-002   0.0000000000000000     
  0.62500000000000000        3.1250000000000000E-002   0.0000000000000000     
  0.50000000000000000        6.2500000000000000E-002   0.0000000000000000     
  0.53125000000000000        6.2500000000000000E-002   0.0000000000000000     
  0.56250000000000000        6.2500000000000000E-002   0.0000000000000000     
  0.59375000000000000        6.2500000000000000E-002   0.0000000000000000     
  0.62500000000000000        6.2500000000000000E-002   0.0000000000000000     
  0.50000000000000000        9.3750000000000000E-002   0.0000000000000000     
  0.53125000000000000        9.3750000000000000E-002   0.0000000000000000     
  0.56250000000000000        9.3750000000000000E-002   0.0000000000000000     
  0.59375000000000000        9.3750000000000000E-002   0.0000000000000000     
  0.62500000000000000        9.3750000000000000E-002   0.0000000000000000     
  0.50000000000000000       0.12500000000000000        0.0000000000000000     
  0.53125000000000000       0.12500000000000000        0.0000000000000000     
  0.56250000000000000       0.12500000000000000        0.0000000000000000     
[...]
 <PointData>
 <DataArray  type="Float64" Name="disp" NumberOfComponents="3" format="ascii">
   0.0000000000000000        0.0000000000000000        0.0000000000000000     
   6.1023865171480150E-003   3.7478095615067256E-003   0.0000000000000000     
   1.1697417428294766E-002   7.2405042297944092E-003   0.0000000000000000     
   1.6785092733440254E-002   1.0478084004863050E-002   0.0000000000000000     
   2.1365412432584475E-002   1.3460548886712650E-002   0.0000000000000000     
   0.0000000000000000        0.0000000000000000        0.0000000000000000     
   4.9110505786472171E-003   2.9739488309686148E-003   0.0000000000000000     
   9.6257208796926355E-003   5.9652888090376242E-003   0.0000000000000000     
   1.4144010903136257E-002   8.9740199342070292E-003   0.0000000000000000     
   1.8465920648978083E-002   1.2000142206476827E-002   0.0000000000000000     
   0.0000000000000000        0.0000000000000000        0.0000000000000000     
   3.9793366865156056E-003   2.3730497737926484E-003   0.0000000000000000     
   7.9689770645671662E-003   4.9598639099147782E-003   0.0000000000000000     
   1.1968921134154679E-002   7.7604424083663887E-003   0.0000000000000000     
   1.5979168895278149E-002   1.0774785269147482E-002   0.0000000000000000     
   0.0000000000000000        0.0000000000000000        0.0000000000000000     
   3.3072448407531828E-003   1.9451123899788259E-003   0.0000000000000000     
   6.7271859829183545E-003   4.2242295324258702E-003   0.0000000000000000     
   1.0259823426495517E-002   6.8373514273411314E-003   0.0000000000000000     
   1.3905157171484666E-002   9.7844780747246111E-003   0.0000000000000000     
   0.0000000000000000        0.0000000000000000        0.0000000000000000     
   2.8947750413599472E-003   1.6901366795271473E-003   0.0000000000000000     
   5.9003476347462037E-003   3.7583856765708986E-003   0.0000000000000000     
   9.0167177801587679E-003   6.2047469911312558E-003   0.0000000000000000     
   1.2243885477597641E-002   9.0292206232082152E-003   0.0000000000000000     
   2.1365412432584475E-002   1.3460548886712650E-002   0.0000000000000000     
   2.5652342898436518E-002   1.6417129492563388E-002   0.0000000000000000     
   2.9859850503705446E-002   1.9577056439635452E-002   0.0000000000000000     
   3.3987935248391270E-002   2.2940329727928831E-002   0.0000000000000000     
   3.8036597132493986E-002   2.6506949357443535E-002   0.0000000000000000     
   1.8465920648978083E-002   1.2000142206476827E-002   0.0000000000000000     
   2.2632651602792653E-002   1.5111924563843786E-002   0.0000000000000000     
   2.6685405250154514E-002   1.8377635944304659E-002   0.0000000000000000     
   3.0624181591063653E-002   2.1797276347859454E-002   0.0000000000000000     
   3.4448980625520084E-002   2.5370845774508165E-002   0.0000000000000000     
   1.5979168895278149E-002   1.0774785269147482E-002   0.0000000000000000     
   1.9931538680338697E-002   1.3962390490137665E-002   0.0000000000000000     
   2.3757848821737450E-002   1.7282756069216549E-002   0.0000000000000000     
   2.7458099319474419E-002   2.0735882006384133E-002   0.0000000000000000     
   3.1032290173549599E-002   2.4321768301640422E-002   0.0000000000000000     
   1.3905157171484666E-002   9.7844780747246111E-003   0.0000000000000000     
   1.7549004131074641E-002   1.2968527271445032E-002   0.0000000000000000     
   2.1077181218454276E-002   1.6292416814371120E-002   0.0000000000000000     
   2.4489688433623567E-002   1.9756146703502876E-002   0.0000000000000000     
   2.7786525776582527E-002   2.3359716938840296E-002   0.0000000000000000     
   1.2243885477597641E-002   9.0292206232082152E-003   0.0000000000000000     
   1.5485047955000488E-002   1.2130334907765885E-002   0.0000000000000000     
   1.8643402440304976E-002   1.5406618179768371E-002   0.0000000000000000     
   2.1718948933511100E-002   1.8858070439215675E-002   0.0000000000000000     
   2.4711687434618865E-002   2.2484691686107790E-002   0.0000000000000000     
   3.8036597132493986E-002   2.6506949357443535E-002   0.0000000000000000     
   4.2042850765159970E-002   3.0302446963726956E-002   0.0000000000000000     
   4.6043710755535608E-002   3.4352354182326489E-002   0.0000000000000000     
   5.0039177103620880E-002   3.8656671013242140E-002   0.0000000000000000     
   5.4029249809415814E-002   4.3215397456473903E-002   0.0000000000000000     
   3.4448980625520084E-002   2.5370845774508165E-002   0.0000000000000000     
   3.8201381048592241E-002   2.9149823765445320E-002   0.0000000000000000     
   4.1922961555348526E-002   3.3185689861865431E-002   0.0000000000000000     
   4.5613722145788960E-002   3.7478444063768497E-002   0.0000000000000000     
   4.9273662819913536E-002   4.2028086371154530E-002   0.0000000000000000     
   3.1032290173549599E-002   2.4321768301640422E-002   0.0000000000000000     
   3.4517215391250793E-002   2.8101891489002610E-002   0.0000000000000000     
   3.7949668979865826E-002   3.2137728102487884E-002   0.0000000000000000     
   4.1329650939394683E-002   3.6429278142096261E-002   0.0000000000000000     
   4.4657161269837355E-002   4.0976541607827724E-002   0.0000000000000000     
   2.7786525776582527E-002   2.3359716938840296E-002   0.0000000000000000     
   3.0990353793135663E-002   2.7158650134398811E-002   0.0000000000000000     
   3.4123833029087502E-002   3.1208468904193851E-002   0.0000000000000000     
   3.7186963484438035E-002   3.5509173248225417E-002   0.0000000000000000     
   4.0179745159187270E-002   4.0060763166493492E-002   0.0000000000000000     
   2.4711687434618865E-002   2.2484691686107790E-002   0.0000000000000000     
   2.7620796254246831E-002   2.6320099701633938E-002   0.0000000000000000     
   3.0445453703013558E-002   3.0397912266983327E-002   0.0000000000000000     
   3.3185659780919037E-002   3.4718129382155967E-002   0.0000000000000000     
   3.5841414487963269E-002   3.9280751047151855E-002   0.0000000000000000     
   5.4029249809415814E-002   4.3215397456473903E-002   0.0000000000000000     
   5.7979941829415696E-002   4.8070366672227409E-002   0.0000000000000000     
   6.1857266120115884E-002   5.3263411820708269E-002   0.0000000000000000     
   6.5661222681516349E-002   5.8794532901916483E-002   0.0000000000000000     
   6.9391811513617091E-002   6.4663729915852050E-002   0.0000000000000000     
   4.9273662819913536E-002   4.2028086371154530E-002   0.0000000000000000     
   5.2902126352608533E-002   4.6886968650948851E-002   0.0000000000000000     
   5.6498455518760211E-002   5.2107442770076826E-002   0.0000000000000000     
   6.0062650318368591E-002   5.7689508728538452E-002   0.0000000000000000     
   6.3594710751433664E-002   6.3633166526333731E-002   0.0000000000000000     
   4.4657161269837355E-002   4.0976541607827724E-002   0.0000000000000000     
   4.7951682171091241E-002   4.5835931798432816E-002   0.0000000000000000     
   5.1232695843053684E-002   5.1063862012662074E-002   0.0000000000000000     
   5.4500202285724712E-002   5.6660332250515491E-002   0.0000000000000000     
   5.7754201499104318E-002   6.2625342511993087E-002   0.0000000000000000     
   4.0179745159187270E-002   4.0060763166493492E-002   0.0000000000000000     
   4.3128609284863818E-002   4.4917256114679303E-002   0.0000000000000000     
   4.6059987092996309E-002   5.0132669548464001E-002   0.0000000000000000     
   4.8973878583584735E-002   5.5707003467847613E-002   0.0000000000000000     
   5.1870283756629089E-002   6.1640257872830118E-002   0.0000000000000000     
   3.5841414487963269E-002   3.9280751047151855E-002   0.0000000000000000     
   3.8432907693926273E-002   4.4130941599688285E-002   0.0000000000000000     
   4.0980329268588064E-002   4.9313865377482606E-002   0.0000000000000000     
   4.3483679211948630E-002   5.4829522380534783E-002   0.0000000000000000     
   4.5942957524007962E-002   6.0677912608844836E-002   0.0000000000000000     
   6.9391811513617091E-002   6.4663729915852050E-002   0.0000000000000000     
   7.3039168693214904E-002   7.0832693680506029E-002   0.0000000000000000     
   7.6593430297106566E-002   7.7263115013869496E-002   0.0000000000000000     
   8.0054596325292049E-002   8.3954993915942411E-002   0.0000000000000000     
   8.3422666777771382E-002   9.0908330386724787E-002   0.0000000000000000     
   6.3594710751433664E-002   6.3633166526333731E-002   0.0000000000000000     
   6.7082535007192301E-002   6.9889631208526107E-002   0.0000000000000000     
   7.0514021274881419E-002   7.6410117820179063E-002   0.0000000000000000     
   7.3889169554501005E-002   8.3194626361292545E-002   0.0000000000000000     
   7.7207979846051045E-002   9.0243156831866636E-002   0.0000000000000000     
   5.7754201499104318E-002   6.2625342511993087E-002   0.0000000000000000     
   6.0986736892312467E-002   6.8907673022808327E-002   0.0000000000000000     
   6.4189851874469184E-002   7.5456104008674710E-002   0.0000000000000000     
   6.7363546445574463E-002   8.2270635469592221E-002   0.0000000000000000     
   7.0507820605628282E-002   8.9351267405560902E-002   0.0000000000000000     
   5.1870283756629089E-002   6.1640257872830118E-002   0.0000000000000000     
   5.4751774348575449E-002   6.7886819123352676E-002   0.0000000000000000     
   5.7620922095869900E-002   7.4401073579356450E-002   0.0000000000000000     
   6.0477726998512449E-002   8.1183021240841410E-002   0.0000000000000000     
   6.3322189056503067E-002   8.8232662107807586E-002   0.0000000000000000     
   4.5942957524007962E-002   6.0677912608844836E-002   0.0000000000000000     
   4.8377647375981228E-002   6.6827069510159195E-002   0.0000000000000000     
   5.0807231939083569E-002   7.3245026532224283E-002   0.0000000000000000     
   5.3231711213314964E-002   7.9931783675040100E-002   0.0000000000000000     
   5.5651085198675426E-002   8.6887340938606672E-002   0.0000000000000000     
   8.3422666777771382E-002   9.0908330386724787E-002   0.0000000000000000     
   8.6696171930416802E-002   9.8088802573003467E-002   0.0000000000000000     
   8.9873642059100534E-002  0.10546208862156532        0.0000000000000000     
   9.2955077163822591E-002  0.11302818853241028        0.0000000000000000     
   9.5940477244582961E-002  0.12078710230553844        0.0000000000000000     
   7.7207979846051045E-002   9.0243156831866636E-002   0.0000000000000000     
   8.0439348747009587E-002   9.7517759361080453E-002   0.0000000000000000     
   8.3552172854854612E-002  0.10498048407811320        0.0000000000000000     
   8.6546452169586105E-002  0.11263133098296485        0.0000000000000000     
   8.9422186691204095E-002  0.12047030007563543        0.0000000000000000     
   7.0507820605628282E-002   8.9351267405560902E-002   0.0000000000000000     
   7.3574121800417724E-002   9.6657741342986894E-002   0.0000000000000000     
   7.6513897475729883E-002  0.10414979880827642        0.0000000000000000     
   7.9327147631564746E-002  0.11182743980142947        0.0000000000000000     
   8.2013872267922269E-002  0.11969066432244604        0.0000000000000000     
   6.3322189056503067E-002   8.8232662107807586E-002   0.0000000000000000     
   6.6100491090641228E-002   9.5508748518722847E-002   0.0000000000000000     
   6.8758815921726335E-002  0.10297003281205500        0.0000000000000000     
   7.1297163549758430E-002  0.11061651498780412        0.0000000000000000     
   7.3715533974737527E-002  0.11844819504597019        0.0000000000000000     
   5.5651085198675426E-002   8.6887340938606672E-002   0.0000000000000000     
   5.8018456617680070E-002   9.4070780888288213E-002   0.0000000000000000     
   6.0286928192844015E-002  0.10144118608944891        0.0000000000000000     
   6.2456499924167262E-002  0.10899855654208883        0.0000000000000000     
   6.4527171811649797E-002  0.11674289224620792        0.0000000000000000     
   9.5940477244582961E-002  0.12078710230553844        0.0000000000000000     
   9.8796066516097125E-002  0.12874168512978129        0.0000000000000000     
  0.10148806919308059       0.13689479219397041        0.0000000000000000     
  0.10401648527553334       0.14524642349810585        0.0000000000000000     
  0.10638131476345536       0.15379657904218758        0.0000000000000000     
   8.9422186691204095E-002  0.12047030007563543        0.0000000000000000     
   9.2179603015569725E-002  0.12852322536260280        0.0000000000000000     
   9.4818927738544112E-002  0.13681594085034479        0.0000000000000000     
   9.7340160860127284E-002  0.14534844653886139        0.0000000000000000     
   9.9743302380319254E-002  0.15412074242815263        0.0000000000000000     
   8.2013872267922269E-002  0.11969066432244604        0.0000000000000000     
   8.4593810427497862E-002  0.12777516555626467        0.0000000000000000     
   8.7086701152986820E-002  0.13611663668782381        0.0000000000000000     
   8.9492544444389102E-002  0.14471507771712358        0.0000000000000000     
   9.1811340301704791E-002  0.15357048864416387        0.0000000000000000     
   7.3715533974737527E-002  0.11844819504597019        0.0000000000000000     
   7.6038688751881564E-002  0.12649750571076679        0.0000000000000000     
   7.8291389436408690E-002  0.13479687970640752        0.0000000000000000     
   8.0473636028318807E-002  0.14334631703289236        0.0000000000000000     
   8.2585428527611970E-002  0.15214581769022137        0.0000000000000000     
   6.4527171811649797E-002  0.11674289224620792        0.0000000000000000     
   6.6514237988720887E-002  0.12469024582610927        0.0000000000000000     
   6.8432992588809735E-002  0.13285666990609590        0.0000000000000000     
   7.0283435611916398E-002  0.14124216448616783        0.0000000000000000     
   7.2065567058040819E-002  0.14984672956632505        0.0000000000000000     
  0.10638131476345536       0.15379657904218758        0.0000000000000000     
  0.10856669706145630       0.16246471483848746        0.0000000000000000     
  0.11055677157414580       0.17117028689927727        0.0000000000000000     
  0.11235153830152386       0.17991329522455710        0.0000000000000000     
  0.11395099724359047       0.18869373981432683        0.0000000000000000     
   9.9743302380319254E-002  0.15412074242815263        0.0000000000000000     
  0.10197884212163971       0.16298864792151804        0.0000000000000000     
  0.10399726990660846       0.17180798242225728        0.0000000000000000     
  0.10579858573522544       0.18057874593037038        0.0000000000000000     
  0.10738278960749069       0.18930093844585721        0.0000000000000000     
   9.1811340301704791E-002  0.15357048864416387        0.0000000000000000     
   9.3979667308796297E-002  0.16251867121335378        0.0000000000000000     
   9.5934104049526084E-002  0.17139542716910230        0.0000000000000000     
   9.7674650523894208E-002  0.18020075651140938        0.0000000000000000     
   9.9201306731900654E-002  0.18893465924027511        0.0000000000000000     
   8.2585428527611970E-002  0.15214581769022137        0.0000000000000000     
   8.4569172622926014E-002  0.16105478471399459        0.0000000000000000     
   8.6367274002898731E-002  0.16993262113981214        0.0000000000000000     
   8.7979732667530189E-002  0.17877932696767418        0.0000000000000000     
   8.9406548616820333E-002  0.18759490219758057        0.0000000000000000     
   7.2065567058040819E-002  0.14984672956632505        0.0000000000000000     
   7.3747358064028878E-002  0.15859698842344053        0.0000000000000000     
   7.5296779766726371E-002  0.16741956433438707        0.0000000000000000     
   7.6713832166133353E-002  0.17631445729916470        0.0000000000000000     
   7.7998515262249768E-002  0.18528166731777351        0.0000000000000000     
   0.0000000000000000        0.0000000000000000        0.0000000000000000     
   2.8947750413599472E-003   1.6901366795271473E-003   0.0000000000000000     
   5.9003476347462037E-003   3.7583856765708986E-003   0.0000000000000000     
   9.0167177801587679E-003   6.2047469911312558E-003   0.0000000000000000     
   1.2243885477597641E-002   9.0292206232082152E-003   0.0000000000000000     
   0.0000000000000000        0.0000000000000000        0.0000000000000000     
   2.6125821775766700E-003   1.5367896657317312E-003   0.0000000000000000     
   5.2893155138636454E-003   3.4570298876969445E-003   0.0000000000000000     
   8.0302000088609271E-003   5.7607206658956394E-003   0.0000000000000000     
   1.0835235662568511E-002   8.4478620003278146E-003   0.0000000000000000     
   0.0000000000000000        0.0000000000000000        0.0000000000000000     
   2.3313211386441221E-003   1.4137383718866978E-003   0.0000000000000000     
   4.6949431140836159E-003   3.2148597111510855E-003   0.0000000000000000     
   7.0908659263184803E-003   5.4033640177931636E-003   0.0000000000000000     
   9.5190895753487145E-003   7.9792512918129329E-003   0.0000000000000000     
   0.0000000000000000        0.0000000000000000        0.0000000000000000     
   2.0509919245623033E-003   1.3209827979920462E-003   0.0000000000000000     
   4.1172304354061126E-003   3.0318751469333221E-003   0.0000000000000000     
   6.1987155325314292E-003   5.1326770468238291E-003   0.0000000000000000     
   8.2954472159382509E-003   7.6233884976635658E-003   0.0000000000000000     
   0.0000000000000000        0.0000000000000000        0.0000000000000000     
   1.7715945353312132E-003   1.2585229440477768E-003   0.0000000000000000     
   3.5561774778311377E-003   2.9080761950436543E-003   0.0000000000000000     
   5.3537488274997746E-003   4.9486597529876343E-003   0.0000000000000000     
   7.1643085843371224E-003   7.3802736178797141E-003   0.0000000000000000     
   1.2243885477597641E-002   9.0292206232082152E-003   0.0000000000000000     
   1.5485047955000488E-002   1.2130334907765885E-002   0.0000000000000000     
   1.8643402440304976E-002   1.5406618179768371E-002   0.0000000000000000     
   2.1718948933511100E-002   1.8858070439215675E-002   0.0000000000000000     
   2.4711687434618865E-002   2.2484691686107790E-002   0.0000000000000000     
   1.0835235662568511E-002   8.4478620003278146E-003   0.0000000000000000     
   1.3649745375569631E-002   1.1436366163853030E-002   0.0000000000000000     
   1.6419052048447517E-002   1.4644145429330841E-002   0.0000000000000000     
   1.9143155681202163E-002   1.8071199796761247E-002   0.0000000000000000     
   2.1822056273833570E-002   2.1717529266144248E-002   0.0000000000000000     
   9.5190895753487145E-003   7.9792512918129329E-003   0.0000000000000000     
   1.1953171616235459E-002   1.0875173804459274E-002   0.0000000000000000     
   1.4366669604039853E-002   1.4023783826981065E-002   0.0000000000000000     
   1.6759583538761894E-002   1.7425081359378307E-002   0.0000000000000000     
   1.9131913420401585E-002   2.1079066401651005E-002   0.0000000000000000     
   8.2954472159382509E-003   7.6233884976635658E-003   0.0000000000000000     
   1.0395326676997975E-002   1.0446757829584612E-002   0.0000000000000000     
   1.2486255107081993E-002   1.3545533372719045E-002   0.0000000000000000     
   1.4568232506190304E-002   1.6919715127066869E-002   0.0000000000000000     
   1.6641258874322908E-002   2.0569303092628076E-002   0.0000000000000000     
   7.1643085843371224E-003   7.3802736178797141E-003   0.0000000000000000     
   8.9762105578571772E-003   1.0151118239229047E-002   0.0000000000000000     
   1.0777808557573931E-002   1.3209394066544779E-002   0.0000000000000000     
   1.2569102583487387E-002   1.6555101099826913E-002   0.0000000000000000     
   1.4350092635597545E-002   2.0188239339075452E-002   0.0000000000000000     
   2.4711687434618865E-002   2.2484691686107790E-002   0.0000000000000000     
   2.7620796254246831E-002   2.6320099701633938E-002   0.0000000000000000     