 <VTKFile type="UnstructuredGrid"  version="0.1"   >
 <UnstructuredGrid>
 <Piece  NumberOfPoints="          1600 "  NumberOfCells="         1024 ">
 <Points>
 <DataArray  type="Float64" NumberOfComponents="3"  format="ascii" >
   0.0000000000000000        0.0000000000000000        0.0000000000000000     
   3.1250000000000000E-002   0.0000000000000000        0.0000000000000000     
   6.2500000000000000E-002   0.0000000000000000        0.0000000000000000     
   9.3750000000000000E-002   0.0000000000000000        0.0000000000000000     
  0.12500000000000000        0.0000000000000000        0.0000000000000000     
   0.0000000000000000        3.1250000000000000E-002   0.0000000000000000     
   3.1250000000000000E-002   3.1250000000000000E-002   0.0000000000000000     
   6.2500000000000000E-002   3.1250000000000000E-002   0.0000000000000000     
   9.3750000000000000E-002   3.1250000000000000E-002   0.0000000000000000     
  0.12500000000000000        3.1250000000000000E-002   0.0000000000000000     
   0.0000000000000000        6.2500000000000000E-002   0.0000000000000000     
   3.1250000000000000E-002   6.2500000000000000E-002   0.0000000000000000     
   6.2500000000000000E-002   6.2500000000000000E-002   0.0000000000000000     
   9.3750000000000000E-002   6.2500000000000000E-002   0.0000000000000000     
  0.12500000000000000        6.2500000000000000E-002   0.0000000000000000     
   0.0000000000000000        9.3750000000000000E-002   0.0000000000000000     
   3.1250000000000000E-002   9.3750000000000000E-002   0.0000000000000000     
   6.2500000000000000E-002   9.3750000000000000E-002   0.0000000000000000     
   9.3750000000000000E-002   9.3750000000000000E-002   0.0000000000000000     
  0.12500000000000000        9.3750000000000000E-002   0.0000000000000000     
   0.0000000000000000       0.12500000000000000        0.0000000000000000     
   3.1250000000000000E-002  0.12500000000000000        0.0000000000000000     
   6.2500000000000000E-002  0.12500000000000000        0.0000000000000000     
   9.3750000000000000E-002  0.12500000000000000        0.0000000000000000     
  0.12500000000000000       0.12500000000000000        0.0000000000000000     
  0.12500000000000000        0.0000000000000000        0.0000000000000000     
  0.15625000000000000        0.0000000000000000        0.0000000000000000     
  0.18750000000000000        0.0000000000000000        0.0000000000000000     
  0.21875000000000000        0.0000000000000000        0.0000000000000000     
  0.25000000000000000        0.0000000000000000        0.0000000000000000     
  0.12500000000000000        3.1250000000000000E-002   0.0000000000000000     
  0.15625000000000000        3.1250000000000000E-002   0.0000000000000000     
  0.18750000000000000        3.1250000000000000E-002   0.0000000000000000     
  0.21875000000000000        3.1250000000000000E-002   0.0000000000000000     
  0.25000000000000000        3.1250000000000000E-002   0.0000000000000000     
  0.12500000000000000        6.2500000000000000E-002   0.0000000000000000     
  0.15625000000000000        6.2500000000000000E-002   0.0000000000000000     
  0.18750000000000000        6.2500000000000000E-002   0.0000000000000000     
  0.21875000000000000        6.2500000000000000E-002   0.0000000000000000     
  0.25000000000000000        6.2500000000000000E-002   0.0000000000000000     
  0.12500000000000000        9.3750000000000000E-002   0.0000000000000000     
  0.15625000000000000        9.3750000000000000E-002   0.0000000000000000     
  0.18750000000000000        9.3750000000000000E-002   0.0000000000000000     
  0.21875000000000000        9.3750000000000000E-002   0.0000000000000000     
  0.25000000000000000        9.3750000000000000E-002   0.0000000000000000     
  0.12500000000000000       0.12500000000000000        0.0000000000000000     
  0.15625000000000000       0.12500000000000000        0.0000000000000000     
  0.18750000000000000       0.12500000000000000        0.0000000000000000     
  0.21875000000000000       0.12500000000000000        0.0000000000000000     
  0.25000000000000000       0.12500000000000000        0.0000000000000000     
  0.25000000000000000        0.0000000000000000        0.0000000000000000     
  0.28125000000000000        0.0000000000000000        0.0000000000000000     
  0.31250000000000000        0.0000000000000000        0.0000000000000000     
  0.34375000000000000        0.0000000000000000        0.0000000000000000     
  0.37500000000000000        0.0000000000000000        0.0000000000000000     
  0.25000000000000000        3.1250000000000000E-002   0.0000000000000000     
  0.28125000000000000        3.1250000000000000E-002   0.0000000000000000     
  0.31250000000000000        3.1250000000000000E-002   0.0000000000000000     
  0.34375000000000000        3.1250000000000000E-002   0.0000000000000000     
  0.37500000000000000        3.1250000000000000E-002   0.0000000000000000     
  0.25000000000000000        6.2500000000000000E-002   0.0000000000000000     
  0.28125000000000000        6.2500000000000000E-002   0.0000000000000000     
  0.31250000000000000        6.2500000000000000E-002   0.0000000000000000     
  0.34375000000000000        6.2500000000000000E-002   0.0000000000000000     
  0.37500000000000000        6.2500000000000000E-002   0.0000000000000000     
  0.25000000000000000        9.3750000000000000E-002   0.0000000000000000     
  0.28125000000000000        9.3750000000000000E-002   0.0000000000000000     
  0.31250000000000000        9.3750000000000000E-002   0.0000000000000000     
  0.34375000000000000        9.3750000000000000E-002   0.0000000000000000     
  0.37500000000000000        9.3750000000000000E-002   0.0000000000000000     
  0.25000000000000000       0.12500000000000000        0.0000000000000000     
  0.28125000000000000       0.12500000000000000        0.0000000000000000     
  0.31250000000000000       0.12500000000000000        0.0000000000000000     
  0.34375000000000000       0.12500000000000000        0.0000000000000000     
  0.37500000000000000       0.12500000000000000        0.0000000000000000     
  0.37500000000000000        0.0000000000000000        0.0000000000000000     
  0.40625000000000000        0.0000000000000000        0.0000000000000000     
  0.43750000000000000        0.0000000000000000        0.0000000000000000     
  0.46875000000000000        0.0000000000000000        0.0000000000000000     
  0.50000000000000000        0.0000000000000000        0.0000000000000000     
  0.37500000000000000        3.1250000000000000E-002   0.0000000000000000     
  0.40625000000000000        3.1250000000000000E-002   0.0000000000000000     
  0.43750000000000000        3.1250000000000000E-002   0.0000000000000000     
  0.46875000000000000        3.1250000000000000E-002   0.0000000000000000     
  0.50000000000000000        3.1250000000000000E-002   0.0000000000000000     
  0.37500000000000000        6.2500000000000000E-002   0.0000000000000000     
  0.40625000000000000        6.2500000000000000E-002   0.0000000000000000     
  0.43750000000000000        6.2500000000000000E-002   0.0000000000000000     
  0.46875000000000000        6.2500000000000000E-002   0.0000000000000000     
  0.50000000000000000        6.2500000000000000E-002   0.0000000000000000     
  0.37500000000000000        9.3750000000000000E-002   0.0000000000000000     
  0.40625000000000000        9.3750000000000000E-002   0.0000000000000000     
  0.43750000000000000        9.3750000000000000E-002   0.0000000000000000     
  0.46875000000000000        9.3750000000000000E-002   0.0000000000000000     
  0.50000000000000000        9.3750000000000000E-002   0.0000000000000000     
  0.37500000000000000       0.12500000000000000        0.0000000000000000     
  0.40625000000000000       0.12500000000000000        0.0000000000000000     
  0.43750000000000000       0.12500000000000000        0.0000000000000000     
  0.46875000000000000       0.12500000000000000        0.0000000000000000     
  0.50000000000000000       0.12500000000000000        0.0000000000000000     
  0.50000000000000000        0.0000000000000000        0.0000000000000000     
  0.53125000000000000        0.0000000000000000        0.0000000000000000     
  0.56250000000000000        0.0000000000000000        0.0000000000000000     
  0.59375000000000000        0.0000000000000000        0.0000000000000000     
  0.62500000000000000        0.0000000000000000        0.0000000000000000     
  0.50000000000000000        3.1250000000000000E-002   0.0000000000000000     
  0.53125000000000000        3.1250000000000000E-002   0.0000000000000000     
  0.56250000000000000        3.1250000000000000E-002   0.0000000000000000     
  0.59375000000000000        3.1250000000000000E-002   0.0000000000000000     
  0.62500000000000000        3.1250000000000000E-002   0.0000000000000000     
  0.50000000000000000        6.2500000000000000E-002   0.0000000000000000     
  0.53125000000000000        6.2500000000000000E-002   0.0000000000000000     
  0.56250000000000000        6.2500000000000000E-002   0.0000000000000000     
  0.59375000000000000        6.2500000000000000E-002   0.0000000000000000     
  0.62500000000000000        6.2500000000000000E-002   0.0000000000000000     
  0.50000000000000000        9.3750000000000000E-002   0.0000000000000000     
  0.53125000000000000        9.3750000000000000E-002   0.0000000000000000     
  0.56250000000000000        9.3750000000000000E-002   0.0000000000000000     
  0.59375000000000000        9.3750000000000000E-002   0.0000000000000000     
  0.62500000000000000        9.3750000000000000E-002   0.0000000000000000     
  0.50000000000000000       0.12500000000000000        0.0000000000000000     
  0.53125000000000000       0.12500000000000000        0.0000000000000000     
  0.56250000000000000       0.12500000000000000        0.0000000000000000     
[...]
 <PointData>
 <DataArray  type="Float64" Name="disp" NumberOfComponents="3" format="ascii">
   0.0000000000000000        0.0000000000000000        0.0000000000000000     
   6.0968362163388665E-003   3.7895934597591413E-003   0.0000000000000000     
   1.1668131798523832E-002   7.3220604576402478E-003   0.0000000000000000     
   1.6713886746554898E-002   1.0597400993643320E-002   0.0000000000000000     
   2.1234101060432060E-002   1.3615615067768358E-002   0.0000000000000000     
   0.0000000000000000        0.0000000000000000        0.0000000000000000     
   4.8922630862466695E-003   3.0209581075659837E-003   0.0000000000000000     
   9.5761653648466748E-003   6.0581638487179068E-003   0.0000000000000000     
   1.4051706835800020E-002   9.1116172234557702E-003   0.0000000000000000     
   1.8318887499106703E-002   1.2181318231779571E-002   0.0000000000000000     
   0.0000000000000000        0.0000000000000000        0.0000000000000000     
   3.9547829580074950E-003   2.4236380405486951E-003   0.0000000000000000     
   7.9132831760820397E-003   5.0600242814476106E-003   0.0000000000000000     
   1.1875500654223634E-002   7.9091587226967474E-003   0.0000000000000000     
   1.5841435392432282E-002   1.0971041364296105E-002   0.0000000000000000     
   0.0000000000000000        0.0000000000000000        0.0000000000000000     
   3.2843958316213411E-003   1.9976332587072747E-003   0.0000000000000000     
   6.6794852322299217E-003   4.3276417558293593E-003   0.0000000000000000     
   1.0185268201825743E-002   6.9900254913662528E-003   0.0000000000000000     
   1.3801744740408801E-002   9.9847844653179578E-003   0.0000000000000000     
   0.0000000000000000        0.0000000000000000        0.0000000000000000     
   2.8811017070882088E-003   1.7429437620417234E-003   0.0000000000000000     
   5.8747715332903225E-003   3.8610162718631532E-003   0.0000000000000000     
   8.9810094786063385E-003   6.3542175294642898E-003   0.0000000000000000     
   1.2199815543036259E-002   9.2225475348451311E-003   0.0000000000000000     
   2.1234101060432060E-002   1.3615615067768358E-002   0.0000000000000000     
   2.5441708649481507E-002   1.6607587755806029E-002   0.0000000000000000     
   2.9549643423029421E-002   1.9804204133546995E-002   0.0000000000000000     
   3.3557905381075802E-002   2.3205464200991257E-002   0.0000000000000000     
   3.7466494523620643E-002   2.6811367958138814E-002   0.0000000000000000     
   1.8318887499106703E-002   1.2181318231779571E-002   0.0000000000000000     
   2.2415921413030664E-002   1.5335805721783287E-002   0.0000000000000000     
   2.6381022635835846E-002   1.8643618541560891E-002   0.0000000000000000     
   3.0214191167522247E-002   2.2104756691112389E-002   0.0000000000000000     
   3.3915427008089874E-002   2.5719220170437773E-002   0.0000000000000000     
   1.5841435392432282E-002   1.0971041364296105E-002   0.0000000000000000     
   1.9739296188694362E-002   1.4204617120375480E-002   0.0000000000000000     
   2.3497291840996248E-002   1.7568830905064670E-002   0.0000000000000000     
   2.7115422349337941E-002   2.1063682718363671E-002   0.0000000000000000     
   3.0593687713719453E-002   2.4689172560272490E-002   0.0000000000000000     
   1.3801744740408801E-002   9.9847844653179578E-003   0.0000000000000000     
   1.7411832976472596E-002   1.3214021951582600E-002   0.0000000000000000     
   2.0898451038510627E-002   1.6579841224058315E-002   0.0000000000000000     
   2.4261598926522892E-002   2.0082242282745102E-002   0.0000000000000000     
   2.7501276640509390E-002   2.3721225127642957E-002   0.0000000000000000     
   1.2199815543036259E-002   9.2225475348451311E-003   0.0000000000000000     
   1.5433531776365379E-002   1.2364020215404658E-002   0.0000000000000000     
   1.8584500228378986E-002   1.5676649498541841E-002   0.0000000000000000     
   2.1652720899077084E-002   1.9160435384256682E-002   0.0000000000000000     
   2.4638193788459675E-002   2.2815377872549183E-002   0.0000000000000000     
   3.7466494523620643E-002   2.6811367958138814E-002   0.0000000000000000     
   4.1279483951510904E-002   3.0617364786560804E-002   0.0000000000000000     
   4.5000946765593526E-002   3.4618904067828360E-002   0.0000000000000000     
   4.8630882965868510E-002   3.8815985801941483E-002   0.0000000000000000     
   5.2169292552335857E-002   4.3208609988900186E-002   0.0000000000000000     
   3.3915427008089874E-002   2.5719220170437773E-002   0.0000000000000000     
   3.7507811176082581E-002   2.9516042557788842E-002   0.0000000000000000     
   4.1014424690044231E-002   3.3524257431417390E-002   0.0000000000000000     
   4.4435267549974823E-002   3.7743864791323418E-002   0.0000000000000000     
   4.7770339755874358E-002   4.2174864637506929E-002   0.0000000000000000     
   3.0593687713719453E-002   2.4689172560272490E-002   0.0000000000000000     
   3.3961516925504684E-002   2.8490103889019906E-002   0.0000000000000000     
   3.7248338976057553E-002   3.2511280162834721E-002   0.0000000000000000     
   4.0454153865378047E-002   3.6752701381716942E-002   0.0000000000000000     
   4.3578961593466178E-002   4.1214367545666555E-002   0.0000000000000000     
   2.7501276640509390E-002   2.3721225127642957E-002   0.0000000000000000     
   3.0640601199777216E-002   2.7539548780254008E-002   0.0000000000000000     
   3.3702689623633479E-002   3.1579972262080369E-002   0.0000000000000000     
   3.6687541912078188E-002   3.5842495573122052E-002   0.0000000000000000     
   3.9595158065111317E-002   4.0327118713379038E-002   0.0000000000000000     
   2.4638193788459675E-002   2.2815377872549183E-002   0.0000000000000000     
   2.7545063998900179E-002   2.6664377231491135E-002   0.0000000000000000     
   3.0377476632772030E-002   3.0730333729154315E-002   0.0000000000000000     
   3.3135431690075226E-002   3.5013247365538736E-002   0.0000000000000000     
   3.5818929170809762E-002   3.9513118140644399E-002   0.0000000000000000     
   5.2169292552335857E-002   4.3208609988900186E-002   0.0000000000000000     
   5.5613959763745530E-002   4.7801175248795361E-002   0.0000000000000000     
   5.8962668838847487E-002   5.2598080201717919E-002   0.0000000000000000     
   6.2215419777641751E-002   5.7599324847667867E-002   0.0000000000000000     
   6.5372212580128292E-002   6.2804909186645191E-002   0.0000000000000000     
   4.7770339755874358E-002   4.2174864637506929E-002   0.0000000000000000     
   5.1015694891892262E-002   4.6810483153058767E-002   0.0000000000000000     
   5.4167386542177925E-002   5.1643946521069767E-002   0.0000000000000000     
   5.7225414706731363E-002   5.6675254741539935E-002   0.0000000000000000     
   6.0189779385552547E-002   6.1904407814469278E-002   0.0000000000000000     
   4.3578961593466178E-002   4.1214367545666555E-002   0.0000000000000000     
   4.6618631313591279E-002   4.5883464359385340E-002   0.0000000000000000     
   4.9569032179022643E-002   5.0747177527575127E-002   0.0000000000000000     
   5.2430164189760299E-002   5.5805507050235889E-002   0.0000000000000000     
   5.5202027345804226E-002   6.1058452927367619E-002   0.0000000000000000     
   3.9595158065111317E-002   4.0327118713379038E-002   0.0000000000000000     
   4.2422769028842587E-002   4.5020118867775100E-002   0.0000000000000000     
   4.5167605749381667E-002   4.9907773221233978E-002   0.0000000000000000     
   4.7829668226728586E-002   5.4990081773755702E-002   0.0000000000000000     
   5.0408956460883322E-002   6.0267044525340249E-002   0.0000000000000000     
   3.5818929170809762E-002   3.9513118140644399E-002   0.0000000000000000     
   3.8428108037646173E-002   4.4220446678228026E-002   0.0000000000000000     
   4.0963107253254999E-002   4.9125733602046355E-002   0.0000000000000000     
   4.3423926817636210E-002   5.4228978912099400E-002   0.0000000000000000     
   4.5810566730789835E-002   5.9530182608387154E-002   0.0000000000000000     
   6.5372212580128292E-002   6.2804909186645191E-002   0.0000000000000000     
   6.8434796407034412E-002   6.8201706505837123E-002   0.0000000000000000     
   7.1404920419087359E-002   7.3776590092430830E-002   0.0000000000000000     
   7.4282584616287159E-002   7.9529559946426312E-002   0.0000000000000000     
   7.7067788998633813E-002   8.5460616067823597E-002   0.0000000000000000     
   6.0189779385552547E-002   6.1904407814469278E-002   0.0000000000000000     
   6.3064176659329868E-002   6.7323072915382337E-002   0.0000000000000000     
   6.5852302608751662E-002   7.2922917219803679E-002   0.0000000000000000     
   6.8554157233817900E-002   7.8703940727733304E-002   0.0000000000000000     
   7.1169740534528625E-002   8.4666143439171226E-002   0.0000000000000000     
   5.5202027345804226E-002   6.1058452927367619E-002   0.0000000000000000     
   5.7888766790222854E-002   6.6500104690258105E-002   0.0000000000000000     
   6.0494527666084569E-002   7.2124551870195078E-002   0.0000000000000000     
   6.3019309973389379E-002   7.7931794467178545E-002   0.0000000000000000     
   6.5463113712137311E-002   8.3921832481208505E-002   0.0000000000000000     
   5.0408956460883322E-002   6.0267044525340249E-002   0.0000000000000000     
   5.2908566799713348E-002   6.5732801830464399E-002   0.0000000000000000     
   5.5331595591086101E-002   7.1381494043605012E-002   0.0000000000000000     
   5.7678042835001622E-002   7.7213121164761991E-002   0.0000000000000000     
   5.9947908531459877E-002   8.3227683193935406E-002   0.0000000000000000     
   4.5810566730789835E-002   5.9530182608387154E-002   0.0000000000000000     
   4.8123576687801366E-002   6.5021164336001289E-002   0.0000000000000000     
   5.0363506383756279E-002   7.0693743740033482E-002   0.0000000000000000     
   5.2530355818654582E-002   7.6547920820483700E-002   0.0000000000000000     
   5.4624124992496303E-002   8.2583695577351970E-002   0.0000000000000000     
   7.7067788998633813E-002   8.5460616067823597E-002   0.0000000000000000     
   7.9755301504071771E-002   9.1559990263524516E-002   0.0000000000000000     
   8.2339890070545554E-002   9.7817914340430953E-002   0.0000000000000000     
   8.4821554698055149E-002  0.10423438829854290        0.0000000000000000     
   8.7200295386600568E-002  0.11080941213786033        0.0000000000000000     
   7.1169740534528625E-002   8.4666143439171226E-002   0.0000000000000000     
   7.3692991085960891E-002   9.0797193417614400E-002   0.0000000000000000     
   7.6117847463191779E-002   9.7084758726559806E-002   0.0000000000000000     
   7.8444309666221318E-002  0.10352883936600743        0.0000000000000000     
   8.0672377695049494E-002  0.11012943533595730        0.0000000000000000     
   6.5463113712137311E-002   8.3921832481208505E-002   0.0000000000000000     
   6.7820158416301346E-002   9.0080992653765860E-002   0.0000000000000000     
   7.0084663619854506E-002   9.6395601726331465E-002   0.0000000000000000     
   7.2256629322796820E-002  0.10286565969890540        0.0000000000000000     
   7.4336055525128245E-002  0.10949116657148758        0.0000000000000000     
   5.9947908531459877E-002   8.3227683193935406E-002   0.0000000000000000     
   6.2136803495093137E-002   8.9411387971978881E-002   0.0000000000000000     
   6.4240338540533737E-002   9.5750443339746000E-002   0.0000000000000000     
   6.6258513667781627E-002  0.10224484929723675        0.0000000000000000     
   6.8191328876836849E-002  0.10889460584445117        0.0000000000000000     
   5.4624124992496303E-002   8.2583695577351970E-002   0.0000000000000000     
   5.6642926322336279E-002   8.8788379372253451E-002   0.0000000000000000     
   5.8584872225229435E-002   9.5149283566803300E-002   0.0000000000000000     
   6.0449962701175766E-002  0.10166640816100150        0.0000000000000000     
   6.2238197750175250E-002  0.10833975315484805        0.0000000000000000     
   8.7200295386600568E-002  0.11080941213786033        0.0000000000000000     
   8.9485931108282263E-002  0.11753038236723039        0.0000000000000000     
   9.1688280835200697E-002  0.12438469549550017        0.0000000000000000     
   9.3807344567355885E-002  0.13137235152266968        0.0000000000000000     
   9.5843122304747827E-002  0.13849335044873892        0.0000000000000000     
   8.0672377695049494E-002  0.11012943533595730        0.0000000000000000     
   8.2813729462483249E-002  0.11687594434952521        0.0000000000000000     
   8.4880042881329512E-002  0.12375776411982699        0.0000000000000000     
   8.6871317951588312E-002  0.13077489464686262        0.0000000000000000     
   8.8787554673259633E-002  0.13792733593063208        0.0000000000000000     
   7.4336055525128245E-002  0.10949116657148758        0.0000000000000000     
   7.6334597692290534E-002  0.11626256500056671        0.0000000000000000     
   7.8263911289725416E-002  0.12317029764263147        0.0000000000000000     
   8.0123996317432861E-002  0.13021436449768184        0.0000000000000000     
   8.1914852775412897E-002  0.13739476556571786        0.0000000000000000     
   6.8191328876836849E-002  0.10889460584445117        0.0000000000000000     
   7.0048535797704162E-002  0.11569024432035492        0.0000000000000000     
   7.1839886060388394E-002  0.12262229606391367        0.0000000000000000     
   7.3565379664889560E-002  0.12969076107512750        0.0000000000000000     
   7.5225016611207646E-002  0.13689563935399626        0.0000000000000000     
   6.2238197750175250E-002  0.10833975315484805        0.0000000000000000     
   6.3955543778724089E-002  0.11515898230888980        0.0000000000000000     
   6.5607967193318475E-002  0.12211375938367360        0.0000000000000000     
   6.7195467993958369E-002  0.12920408437919942        0.0000000000000000     
   6.8718046180643810E-002  0.13642995729546731        0.0000000000000000     
   9.5843122304747827E-002  0.13849335044873892        0.0000000000000000     
   9.7783761258855698E-002  0.14573668001086054        0.0000000000000000     
   9.9617408641158728E-002  0.15309132794618727        0.0000000000000000     
  0.10134406445165690       0.16055729425471901        0.0000000000000000     
  0.10296372869035020       0.16813457893645584        0.0000000000000000     
   8.8787554673259633E-002  0.13792733593063208        0.0000000000000000     
   9.0612453261375445E-002  0.14520044690106168        0.0000000000000000     
   9.2329713930967713E-002  0.15257958648807768        0.0000000000000000     
   9.3939336682036398E-002  0.16006475469168005        0.0000000000000000     
   9.5441321514581567E-002  0.16765595151186885        0.0000000000000000     
   8.1914852775412897E-002  0.13739476556571786        0.0000000000000000     
   8.3619785964186275E-002  0.14469545386369159        0.0000000000000000     
   8.5222101184273730E-002  0.15210038240855520        0.0000000000000000     
   8.6721798435675249E-002  0.15960955120030862        0.0000000000000000     
   8.8118877718390859E-002  0.16722296023895200        0.0000000000000000     
   7.5225016611207646E-002  0.13689563935399626        0.0000000000000000     
   7.6805759367288201E-002  0.14422170089875030        0.0000000000000000     
   7.8294570401076777E-002  0.15165371570761982        0.0000000000000000     
   7.9691449712573387E-002  0.15919168378060480        0.0000000000000000     
   8.0996397301778073E-002  0.16683560511770526        0.0000000000000000     
   6.8718046180643810E-002  0.13642995729546731        0.0000000000000000     
   7.0170373470681183E-002  0.14377918800623782        0.0000000000000000     
   7.1547121581376869E-002  0.15123958638527157        0.0000000000000000     
   7.2848290512730896E-002  0.15881115243256852        0.0000000000000000     
   7.4073880264743208E-002  0.16649388614812866        0.0000000000000000     
   0.0000000000000000        0.0000000000000000        0.0000000000000000     
   2.8811017070882088E-003   1.7429437620417234E-003   0.0000000000000000     
   5.8747715332903225E-003   3.8610162718631532E-003   0.0000000000000000     
   8.9810094786063385E-003   6.3542175294642898E-003   0.0000000000000000     
   1.2199815543036259E-002   9.2225475348451311E-003   0.0000000000000000     
   0.0000000000000000        0.0000000000000000        0.0000000000000000     
   2.6111007534529527E-003   1.5869127606822743E-003   0.0000000000000000     
   5.2912642182836311E-003   3.5528571057430215E-003   0.0000000000000000     
   8.0404903944920354E-003   5.8978330351822416E-003   0.0000000000000000     
   1.0858779282078169E-002   8.6218405489999345E-003   0.0000000000000000     
   0.0000000000000000        0.0000000000000000        0.0000000000000000     
   2.3405931397604243E-003   1.4568834647591612E-003   0.0000000000000000     
   4.7210854262302402E-003   3.2958735336629944E-003   0.0000000000000000     
   7.1414768594094454E-003   5.5169702067114981E-003   0.0000000000000000     
   9.6017674392980430E-003   8.1201734839046712E-003   0.0000000000000000     
   0.0000000000000000        0.0000000000000000        0.0000000000000000     
   2.0695788660106259E-003   1.3528558742723841E-003   0.0000000000000000     
   4.1642351571301488E-003   3.0900655556230696E-003   0.0000000000000000     
   6.2839688733585669E-003   5.2116290440520569E-003   0.0000000000000000     
   8.4287800146958837E-003   7.7175463395593455E-003   0.0000000000000000     
   0.0000000000000000        0.0000000000000000        0.0000000000000000     
   1.7980579322035557E-003   1.2748299892219430E-003   0.0000000000000000     
   3.6207134109833561E-003   2.9354331716232493E-003   0.0000000000000000     
   5.4679664363393998E-003   4.9818095472039196E-003   0.0000000000000000     
   7.3398170082716882E-003   7.4139591159639532E-003   0.0000000000000000     
   1.2199815543036259E-002   9.2225475348451311E-003   0.0000000000000000     
   1.5433531776365379E-002   1.2364020215404658E-002   0.0000000000000000     
   1.8584500228378986E-002   1.5676649498541841E-002   0.0000000000000000     
   2.1652720899077084E-002   1.9160435384256682E-002   0.0000000000000000     
   2.4638193788459675E-002   2.2815377872549183E-002   0.0000000000000000     
   1.0858779282078169E-002   8.6218405489999345E-003   0.0000000000000000     
   1.3692934087621596E-002   1.1642700569162745E-002   0.0000000000000000     
   1.6489758017701892E-002   1.4878234017637326E-002   0.0000000000000000     
   1.9249251072319049E-002   1.8328440894423668E-002   0.0000000000000000     
   2.1971413251473070E-002   2.1993321199521784E-002   0.0000000000000000     
   9.6017674392980430E-003   8.1201734839046712E-003   0.0000000000000000     
   1.2078581409490157E-002   1.1038151670177973E-002   0.0000000000000000     
   1.4548543013579909E-002   1.4203573070466859E-002   0.0000000000000000     
   1.7011652251567304E-002   1.7616437684771325E-002   0.0000000000000000     
   1.9467909123452337E-002   2.1276745513091378E-002   0.0000000000000000     
   8.4287800146958837E-003   7.7175463395593455E-003   0.0000000000000000     
   1.0590473741971055E-002   1.0550373518450338E-002   0.0000000000000000     
   1.2760855216013047E-002   1.3652666657030436E-002   0.0000000000000000     
   1.4939924436821850E-002   1.7024425755299645E-002   0.0000000000000000     
   1.7127681404397473E-002   2.0665650813257962E-002   0.0000000000000000     
   7.3398170082716882E-003   7.4139591159639532E-003   0.0000000000000000     
   9.2286110850642953E-003   1.0179366113979838E-002   0.0000000000000000     
   1.1126694625001297E-002   1.3225514777328064E-002   0.0000000000000000     
   1.3034067628082690E-002   1.6552405106008628E-002   0.0000000000000000     
   1.4950730094308475E-002   2.0160037100021535E-002   0.0000000000000000     
   2.4638193788459675E-002   2.2815377872549183E-002   0.0000000000000000     
   2.7545063998900179E-002   2.6664377231491135E-002   0.0000000000000000     