 <VTKFile type="UnstructuredGrid"  version="0.1"   >
 <UnstructuredGrid>
 <Piece  NumberOfPoints="           400 "  NumberOfCells="          256 ">
 <Points>
 <DataArray  type="Float64" NumberOfComponents="3"  format="ascii" >
   0.0000000000000000        0.0000000000000000        0.0000000000000000     
   6.2500000000000000E-002   0.0000000000000000        0.0000000000000000     
  0.12500000000000000        0.0000000000000000        0.0000000000000000     
  0.18750000000000000        0.0000000000000000        0.0000000000000000     
  0.25000000000000000        0.0000000000000000        0.0000000000000000     
   0.0000000000000000        6.2500000000000000E-002   0.0000000000000000     
   6.2500000000000000E-002   6.2500000000000000E-002   0.0000000000000000     
  0.12500000000000000        6.2500000000000000E-002   0.0000000000000000     
  0.18750000000000000        6.2500000000000000E-002   0.0000000000000000     
  0.25000000000000000        6.2500000000000000E-002   0.0000000000000000     
   0.0000000000000000       0.12500000000000000        0.0000000000000000     
   6.2500000000000000E-002  0.12500000000000000        0.0000000000000000     
  0.12500000000000000       0.12500000000000000        0.0000000000000000     
  0.18750000000000000       0.12500000000000000        0.0000000000000000     
  0.25000000000000000       0.12500000000000000        0.0000000000000000     
   0.0000000000000000       0.18750000000000000        0.0000000000000000     
   6.2500000000000000E-002  0.18750000000000000        0.0000000000000000     
  0.12500000000000000       0.18750000000000000        0.0000000000000000     
  0.18750000000000000       0.18750000000000000        0.0000000000000000     
  0.25000000000000000       0.18750000000000000        0.0000000000000000     
   0.0000000000000000       0.25000000000000000        0.0000000000000000     
   6.2500000000000000E-002  0.25000000000000000        0.0000000000000000     
  0.12500000000000000       0.25000000000000000        0.0000000000000000     
  0.18750000000000000       0.25000000000000000        0.0000000000000000     
  0.25000000000000000       0.25000000000000000        0.0000000000000000     
  0.25000000000000000        0.0000000000000000        0.0000000000000000     
  0.31250000000000000        0.0000000000000000        0.0000000000000000     
  0.37500000000000000        0.0000000000000000        0.0000000000000000     
  0.43750000000000000        0.0000000000000000        0.0000000000000000     
  0.50000000000000000        0.0000000000000000        0.0000000000000000     
  0.25000000000000000        6.2500000000000000E-002   0.0000000000000000     
  0.31250000000000000        6.2500000000000000E-002   0.0000000000000000     
  0.37500000000000000        6.2500000000000000E-002   0.0000000000000000     
  0.43750000000000000        6.2500000000000000E-002   0.0000000000000000     
  0.50000000000000000        6.2500000000000000E-002   0.0000000000000000     
  0.25000000000000000       0.12500000000000000        0.0000000000000000     
  0.31250000000000000       0.12500000000000000        0.0000000000000000     
  0.37500000000000000       0.12500000000000000        0.0000000000000000     
  0.43750000000000000       0.12500000000000000        0.0000000000000000     
  0.50000000000000000       0.12500000000000000        0.0000000000000000     
  0.25000000000000000       0.18750000000000000        0.0000000000000000     
  0.31250000000000000       0.18750000000000000        0.0000000000000000     
  0.37500000000000000       0.18750000000000000        0.0000000000000000     
  0.43750000000000000       0.18750000000000000        0.0000000000000000     
  0.50000000000000000       0.18750000000000000        0.0000000000000000     
  0.25000000000000000       0.25000000000000000        0.0000000000000000     
  0.31250000000000000       0.25000000000000000        0.0000000000000000     
  0.37500000000000000       0.25000000000000000        0.0000000000000000     
  0.43750000000000000       0.25000000000000000        0.0000000000000000     
  0.50000000000000000       0.25000000000000000        0.0000000000000000     
  0.50000000000000000        0.0000000000000000        0.0000000000000000     
  0.56250000000000000        0.0000000000000000        0.0000000000000000     
  0.62500000000000000        0.0000000000000000        0.0000000000000000     
  0.68750000000000000        0.0000000000000000        0.0000000000000000     
  0.75000000000000000        0.0000000000000000        0.0000000000000000     
  0.50000000000000000        6.2500000000000000E-002   0.0000000000000000     
  0.56250000000000000        6.2500000000000000E-002   0.0000000000000000     
  0.62500000000000000        6.2500000000000000E-002   0.0000000000000000     
  0.68750000000000000        6.2500000000000000E-002   0.0000000000000000     
  0.75000000000000000        6.2500000000000000E-002   0.0000000000000000     
  0.50000000000000000       0.12500000000000000        0.0000000000000000     
  0.56250000000000000       0.12500000000000000        0.0000000000000000     
  0.62500000000000000       0.12500000000000000        0.0000000000000000     
  0.68750000000000000       0.12500000000000000        0.0000000000000000     
  0.75000000000000000       0.12500000000000000        0.0000000000000000     
  0.50000000000000000       0.18750000000000000        0.0000000000000000     
  0.56250000000000000       0.18750000000000000        0.0000000000000000     
  0.62500000000000000       0.18750000000000000        0.0000000000000000     
  0.68750000000000000       0.18750000000000000        0.0000000000000000     
  0.75000000000000000       0.18750000000000000        0.0000000000000000     
  0.50000000000000000       0.25000000000000000        0.0000000000000000     
  0.56250000000000000       0.25000000000000000        0.0000000000000000     
  0.62500000000000000       0.25000000000000000        0.0000000000000000     
  0.68750000000000000       0.25000000000000000        0.0000000000000000     
  0.75000000000000000       0.25000000000000000        0.0000000000000000     
  0.75000000000000000        0.0000000000000000        0.0000000000000000     
  0.81250000000000000        0.0000000000000000        0.0000000000000000     
  0.87500000000000000        0.0000000000000000        0.0000000000000000     
  0.93750000000000000        0.0000000000000000        0.0000000000000000     
   1.0000000000000000        0.0000000000000000        0.0000000000000000     
  0.75000000000000000        6.2500000000000000E-002   0.0000000000000000     
  0.81250000000000000        6.2500000000000000E-002   0.0000000000000000     
  0.87500000000000000        6.2500000000000000E-002   0.0000000000000000     
  0.93750000000000000        6.2500000000000000E-002   0.0000000000000000     
   1.0000000000000000        6.2500000000000000E-002   0.0000000000000000     
  0.75000000000000000       0.12500000000000000        0.0000000000000000     
  0.81250000000000000       0.12500000000000000        0.0000000000000000     
  0.87500000000000000       0.12500000000000000        0.0000000000000000     
  0.93750000000000000       0.12500000000000000        0.0000000000000000     
   1.0000000000000000       0.12500000000000000        0.0000000000000000     
  0.75000000000000000       0.18750000000000000        0.0000000000000000     
  0.81250000000000000       0.18750000000000000        0.0000000000000000     
  0.87500000000000000       0.18750000000000000        0.0000000000000000     
  0.93750000000000000       0.18750000000000000        0.0000000000000000     
   1.0000000000000000       0.18750000000000000        0.0000000000000000     
  0.75000000000000000       0.25000000000000000        0.0000000000000000     
  0.81250000000000000       0.25000000000000000        0.0000000000000000     
  0.87500000000000000       0.25000000000000000        0.0000000000000000     
  0.93750000000000000       0.25000000000000000        0.0000000000000000     
   1.0000000000000000       0.25000000000000000        0.0000000000000000     
   0.0000000000000000       0.25000000000000000        0.0000000000000000     
   6.2500000000000000E-002  0.25000000000000000        0.0000000000000000     
  0.12500000000000000       0.25000000000000000        0.0000000000000000     
  0.18750000000000000       0.25000000000000000        0.0000000000000000     
  0.25000000000000000       0.25000000000000000        0.0000000000000000     
   0.0000000000000000       0.31250000000000000        0.0000000000000000     
   6.2500000000000000E-002  0.31250000000000000        0.0000000000000000     
  0.12500000000000000       0.31250000000000000        0.0000000000000000     
  0.18750000000000000       0.31250000000000000        0.0000000000000000     
  0.25000000000000000       0.31250000000000000        0.0000000000000000     
   0.0000000000000000       0.37500000000000000        0.0000000000000000     
   6.2500000000000000E-002  0.37500000000000000        0.0000000000000000     
  0.12500000000000000       0.37500000000000000        0.0000000000000000     
  0.18750000000000000       0.37500000000000000        0.0000000000000000     
  0.25000000000000000       0.37500000000000000        0.0000000000000000     
   0.0000000000000000       0.43750000000000000        0.0000000000000000     
   6.2500000000000000E-002  0.43750000000000000        0.0000000000000000     
  0.12500000000000000       0.43750000000000000        0.0000000000000000     
  0.18750000000000000       0.43750000000000000        0.0000000000000000     
  0.25000000000000000       0.43750000000000000        0.0000000000000000     
   0.0000000000000000       0.50000000000000000        0.0000000000000000     
   6.2500000000000000E-002  0.50000000000000000        0.0000000000000000     
  0.12500000000000000       0.50000000000000000        0.0000000000000000     
[...]
 <PointData>
 <DataArray  type="Float64" Name="disp" NumberOfComponents="3" format="ascii">
   0.0000000000000000        0.0000000000000000        0.0000000000000000     
   1.0689712061555322E-002   6.3586728028767131E-003   0.0000000000000000     
   2.0517003512710179E-002   1.2942948142140958E-002   0.0000000000000000     
   2.9481874353464568E-002   1.9752826017792730E-002   0.0000000000000000     
   3.7584324583818489E-002   2.6788306429832029E-002   0.0000000000000000     
   0.0000000000000000        0.0000000000000000        0.0000000000000000     
   8.1788482165284261E-003   5.0161783715470844E-003   0.0000000000000000     
   1.5993951190686084E-002   1.0745003276933406E-002   0.0000000000000000     
   2.3445308922472964E-002   1.7186474716158966E-002   0.0000000000000000     
   3.0532921411889083E-002   2.4340592689223763E-002   0.0000000000000000     
   0.0000000000000000        0.0000000000000000        0.0000000000000000     
   6.1430784578965251E-003   4.0008745530956680E-003   0.0000000000000000     
   1.2251864564545887E-002   9.0628927331569062E-003   0.0000000000000000     
   1.8326358319948086E-002   1.5186054540183716E-002   0.0000000000000000     
   2.4366559724103128E-002   2.2370359974176093E-002   0.0000000000000000     
   0.0000000000000000        0.0000000000000000        0.0000000000000000     
   4.5824027856596226E-003   3.3127613475224652E-003   0.0000000000000000     
   9.2907436342895989E-003   7.8966165108114560E-003   0.0000000000000000     
   1.4125022545889930E-002   1.3751565489866974E-002   0.0000000000000000     
   1.9085239520460612E-002   2.0877608284689014E-002   0.0000000000000000     
   0.0000000000000000        0.0000000000000000        0.0000000000000000     
   3.4968211998177168E-003   2.9518387548274757E-003   0.0000000000000000     
   7.1105883999172149E-003   7.2461746098970558E-003   0.0000000000000000     
   1.0841301600298494E-002   1.2883007565208743E-002   0.0000000000000000     
   1.4688960800961557E-002   1.9862337620762536E-002   0.0000000000000000     
   3.7584324583818489E-002   2.6788306429832029E-002   0.0000000000000000     
   4.5081482320889689E-002   3.4405448299632865E-002   0.0000000000000000     
   5.2230475681795903E-002   4.2960310548569240E-002   0.0000000000000000     
   5.9031304666537152E-002   5.2452893176641147E-002   0.0000000000000000     
   6.5483969275113421E-002   6.2883196183848591E-002   0.0000000000000000     
   3.0532921411889083E-002   2.4340592689223763E-002   0.0000000000000000     
   3.7258493176957015E-002   3.2273356322630051E-002   0.0000000000000000     
   4.3623728735699377E-002   4.1050764742880080E-002   0.0000000000000000     
   4.9628628088116161E-002   5.0672817949973852E-002   0.0000000000000000     
   5.5273191234207354E-002   6.1139515943911371E-002   0.0000000000000000     
   2.4366559724103128E-002   2.2370359974176093E-002   0.0000000000000000     
   3.0220173225107099E-002   3.0482386297728228E-002   0.0000000000000000     
   3.5734903271056107E-002   3.9388710773434303E-002   0.0000000000000000     
   4.0910749861950146E-002   4.9089333401294316E-002   0.0000000000000000     
   4.5747712997789229E-002   5.9584254181308270E-002   0.0000000000000000     
   1.9085239520460612E-002   2.0877608284689014E-002   0.0000000000000000     
   2.3966522465339909E-002   2.9032538224927389E-002   0.0000000000000000     
   2.8563999287866085E-002   3.7974148640231895E-002   0.0000000000000000     
   3.2877669988039128E-002   4.7702439530602540E-002   0.0000000000000000     
   3.6907534565859039E-002   5.8217410896039323E-002   0.0000000000000000     
   1.4688960800961557E-002   1.9862337620762536E-002   0.0000000000000000     
   1.8497540897655471E-002   2.7923812104227539E-002   0.0000000000000000     
   2.2111016786129315E-002   3.6807078343272875E-002   0.0000000000000000     
   2.5529388466383092E-002   4.6512136337898517E-002   0.0000000000000000     
   2.8752655938416798E-002   5.7038986088104503E-002   0.0000000000000000     
   6.5483969275113421E-002   6.2883196183848591E-002   0.0000000000000000     
   7.1573129881917913E-002   7.4124645569070335E-002   0.0000000000000000     
   7.7283446861343863E-002   8.6050667331185104E-002   0.0000000000000000     
   8.2614920213391244E-002   9.8661261470192926E-002   0.0000000000000000     
   8.7567549938060069E-002  0.11195642798609379        0.0000000000000000     
   5.5273191234207354E-002   6.1139515943911371E-002   0.0000000000000000     
   6.0572680582404372E-002   7.2390887080640023E-002   0.0000000000000000     
   6.5542358541138587E-002   8.4366959716107193E-002   0.0000000000000000     
   7.0182225110410043E-002   9.7067733850312879E-002   0.0000000000000000     
   7.4492280290218704E-002  0.11049320948325711        0.0000000000000000     
   4.5747712997789229E-002   5.9584254181308270E-002   0.0000000000000000     
   5.0272710473052380E-002   7.0848613369139890E-002   0.0000000000000000     
   5.4512660082218625E-002   8.2857551220452852E-002   0.0000000000000000     
   5.8467561825287992E-002   9.5611067735247177E-002   0.0000000000000000     
   6.2137415702260439E-002  0.10910916291352292        0.0000000000000000     
   3.6907534565859039E-002   5.8217410896039323E-002   0.0000000000000000     
   4.0673219553861946E-002   6.9497824434569949E-002   0.0000000000000000     
   4.4194351484583956E-002   8.1522441844222124E-002   0.0000000000000000     
   4.7470930358025069E-002   9.4291263124995847E-002   0.0000000000000000     
   5.0502956174185286E-002  0.10780428827689115        0.0000000000000000     
   2.8752655938416798E-002   5.7038986088104503E-002   0.0000000000000000     
   3.1774207824833076E-002   6.8338520276930201E-002   0.0000000000000000     
   3.4587432748234566E-002   8.0361631587414981E-002   0.0000000000000000     
   3.7192330708621282E-002   9.3108320019558849E-002   0.0000000000000000     
   3.9588901705993218E-002  0.10657858557336183        0.0000000000000000     
   8.7567549938060069E-002  0.11195642798609379        0.0000000000000000     
   9.2090418759614295E-002  0.12600334856633302        0.0000000000000000     
   9.6132609402317881E-002  0.14086920489835597        0.0000000000000000     
   9.9694121866170812E-002  0.15655399698216263        0.0000000000000000     
  0.10277495615117309       0.17305772481775303        0.0000000000000000     
   7.4492280290218704E-002  0.11049320948325711        0.0000000000000000     
   7.8438870357000950E-002  0.12464889141062419        0.0000000000000000     
   8.1988341587193120E-002  0.13954028442809838        0.0000000000000000     
   8.5140693980795226E-002  0.15516738853567971        0.0000000000000000     
   8.7895927537807256E-002  0.17153020373336814        0.0000000000000000     
   6.2137415702260439E-002  0.10910916291352292        0.0000000000000000     
   6.5506532092144659E-002  0.12330325376340336        0.0000000000000000     
   6.8559221373949250E-002  0.13814475729301187        0.0000000000000000     
   7.1295483547674218E-002  0.15363367350234849        0.0000000000000000     
   7.3715318613319591E-002  0.16977000239141321        0.0000000000000000     
   5.0502956174185286E-002  0.10780428827689115        0.0000000000000000     
   5.3293403965045394E-002  0.12196643562467051        0.0000000000000000     
   5.5845248762586251E-002  0.13668262349309646        0.0000000000000000     
   5.8158490566807802E-002  0.15195285188216909        0.0000000000000000     
   6.0233129377710068E-002  0.16777712079188825        0.0000000000000000     
   3.9588901705993218E-002  0.10657858557336183        0.0000000000000000     
   4.1799485975703217E-002  0.12063843699442568        0.0000000000000000     
   4.3846423753104130E-002  0.13515388302835221        0.0000000000000000     
   4.5729715038195964E-002  0.15012492367514141        0.0000000000000000     
   4.7449359830978699E-002  0.16555155893479329        0.0000000000000000     
   0.0000000000000000        0.0000000000000000        0.0000000000000000     
   3.4968211998177168E-003   2.9518387548274757E-003   0.0000000000000000     
   7.1105883999172149E-003   7.2461746098970558E-003   0.0000000000000000     
   1.0841301600298494E-002   1.2883007565208743E-002   0.0000000000000000     
   1.4688960800961557E-002   1.9862337620762536E-002   0.0000000000000000     
   0.0000000000000000        0.0000000000000000        0.0000000000000000     
   2.6422439678458042E-003   2.7791773793535771E-003   0.0000000000000000     
   5.3239223350995653E-003   6.9027154622230379E-003   0.0000000000000000     
   8.0450351017612824E-003   1.2370614248608386E-002   0.0000000000000000     
   1.0805582267830956E-002   1.9182873738509614E-002   0.0000000000000000     
   0.0000000000000000        0.0000000000000000        0.0000000000000000     
   1.7745813572188822E-003   2.6558478254436464E-003   0.0000000000000000     
   3.5432689135074819E-003   6.6573874995987346E-003   0.0000000000000000     
   5.3060626688657981E-003   1.2004619022465262E-002   0.0000000000000000     
   7.0629626232938331E-003   1.8697542394043237E-002   0.0000000000000000     
   0.0000000000000000        0.0000000000000000        0.0000000000000000     
   8.9383336793694992E-004   2.5818500930976851E-003   0.0000000000000000     
   1.7686281351409633E-003   6.5101907220241444E-003   0.0000000000000000     
   2.6243843016120409E-003   1.1785021886779381E-002   0.0000000000000000     
   3.4611018673501811E-003   1.8406343587363389E-002   0.0000000000000000     
   0.0000000000000000        0.0000000000000000        0.0000000000000000     
   7.9146758591441824E-018   2.5571841823156917E-003   0.0000000000000000     
   1.1058862159352145E-017   6.4611251294992688E-003   0.0000000000000000     
   9.3241386833753381E-018   1.1711822841550732E-002   0.0000000000000000     
   3.2526065174565133E-018   1.8309277318470079E-002   0.0000000000000000     
   1.4688960800961557E-002   1.9862337620762536E-002   0.0000000000000000     
   1.8497540897655471E-002   2.7923812104227539E-002   0.0000000000000000     
   2.2111016786129315E-002   3.6807078343272875E-002   0.0000000000000000     
   2.5529388466383092E-002   4.6512136337898517E-002   0.0000000000000000     
   2.8752655938416798E-002   5.7038986088104503E-002   0.0000000000000000     
   1.0805582267830956E-002   1.9182873738509614E-002   0.0000000000000000     
   1.3533959362819701E-002   2.7102917602659343E-002   0.0000000000000000     
   1.6158561916238628E-002   3.5894169511790190E-002   0.0000000000000000     
   1.8679389928087743E-002   4.5556629465902151E-002   0.0000000000000000     
   2.1096443398367040E-002   5.6090297464995213E-002   0.0000000000000000     
   7.0629626232938331E-003   1.8697542394043237E-002   0.0000000000000000     
   8.7965087015985342E-003   2.6516564387253475E-002   0.0000000000000000     
   1.0489240828586849E-002   3.5242091775016818E-002   0.0000000000000000     
   1.2141159004258783E-002   4.4874124557333285E-002   0.0000000000000000     
   1.3752263228614331E-002   5.5412662734202846E-002   0.0000000000000000     
   3.4611018673501811E-003   1.8406343587363389E-002   0.0000000000000000     
   4.2851889139919642E-003   2.6164752458009932E-002   0.0000000000000000     
   5.1030535231739753E-003   3.4850845132952786E-002   0.0000000000000000     
   5.9146956948962093E-003   4.4464621612191939E-002   0.0000000000000000     
   6.7201154291586691E-003   5.5006081895727393E-002   0.0000000000000000     
   3.2526065174565133E-018   1.8309277318470079E-002   0.0000000000000000     
  -1.0842021724855044E-019   2.6047481814928719E-002   0.0000000000000000     
   6.9931040125315036E-018   3.4720429585598067E-002   0.0000000000000000     
   2.4950202494322671E-017   4.4328120630478099E-002   0.0000000000000000     
   5.2475385148298415E-017   5.4870554949568842E-002   0.0000000000000000     
   2.8752655938416798E-002   5.7038986088104503E-002   0.0000000000000000     
   3.1774207824833076E-002   6.8338520276930201E-002   0.0000000000000000     
   3.4587432748234566E-002   8.0361631587414981E-002   0.0000000000000000     
   3.7192330708621282E-002   9.3108320019558849E-002   0.0000000000000000     
   3.9588901705993218E-002  0.10657858557336183        0.0000000000000000     
   2.1096443398367040E-002   5.6090297464995213E-002   0.0000000000000000     
   2.3376740735319940E-002   6.7407903728902360E-002   0.0000000000000000     
   2.5487300347189865E-002   7.9422178477456529E-002   0.0000000000000000     
   2.7428122233976806E-002   9.2133121710657739E-002   0.0000000000000000     
   2.9199206395680775E-002  0.10554073342850598        0.0000000000000000     
   1.3752263228614331E-002   5.5412662734202846E-002   0.0000000000000000     
   1.5281883734676732E-002   6.6743177623168157E-002   0.0000000000000000     
   1.6689350755469221E-002   7.8751140541771902E-002   0.0000000000000000     
   1.7974664290991798E-002   9.1436551490014090E-002   0.0000000000000000     
   1.9137824341244461E-002  0.10479941046789465        0.0000000000000000     
   6.7201154291586691E-003   5.5006081895727393E-002   0.0000000000000000     
   7.4896368229034494E-003   6.6344341959727604E-002   0.0000000000000000     
   8.1935839730726441E-003   7.8348517780361088E-002   0.0000000000000000     
   8.8319568796662567E-003   9.1018609357627817E-002   0.0000000000000000     
   9.4047555426842837E-003  0.10435461669152780        0.0000000000000000     
   5.2475385148298415E-017   5.4870554949568842E-002   0.0000000000000000     
   8.9555099447302666E-017   6.6211396738580702E-002   0.0000000000000000     
   1.3194740439148589E-016   7.8214310193224085E-002   0.0000000000000000     
   1.8477515524584209E-016   9.0879295313499017E-002   0.0000000000000000     
   2.4199392489876459E-016  0.10420635209940546        0.0000000000000000     
   3.9588901705993218E-002  0.10657858557336183        0.0000000000000000     
   4.1799485975703217E-002  0.12063843699442568        0.0000000000000000     
   4.3846423753104130E-002  0.13515388302835221        0.0000000000000000     
   4.5729715038195964E-002  0.15012492367514141        0.0000000000000000     
   4.7449359830978699E-002  0.16555155893479329        0.0000000000000000     
   2.9199206395680775E-002  0.10554073342850598        0.0000000000000000     
   3.0836283411874041E-002  0.11948029672792496        0.0000000000000000     
   3.2375083862128895E-002  0.13378709470583833        0.0000000000000000     
   3.3815607746445341E-002  0.14846112736224609        0.0000000000000000     
   3.5157855064823364E-002  0.16350239469714828        0.0000000000000000     
   1.9137824341244461E-002  0.10479941046789465        0.0000000000000000     
   2.0215301561313834E-002  0.11865305368042441        0.0000000000000000     
   2.1243566606286540E-002  0.13281081733261407        0.0000000000000000     
   2.2222619476162574E-002  0.14727270142446372        0.0000000000000000     
   2.3152460170941934E-002  0.16203870595597325        0.0000000000000000     
   9.4047555426842837E-003  0.10435461669152780        0.0000000000000000     
   9.9365404240225937E-003  0.11815670785192402        0.0000000000000000     
   1.0451871985577052E-002  0.13222505090867953        0.0000000000000000     
   1.0950750227347658E-002  0.14655964586179424        0.0000000000000000     
   1.1433175149334411E-002  0.16116049271126828        0.0000000000000000     
   2.4199392489876459E-016  0.10420635209940546        0.0000000000000000     
   3.2352592826967452E-016  0.11799125924242386        0.0000000000000000     
   4.4192080550509161E-016  0.13202979543403462        0.0000000000000000     
   6.0097326420871511E-016  0.14632196067423775        0.0000000000000000     
   7.9797279894933126E-016  0.16086775496303324        0.0000000000000000     
   0.0000000000000000        0.0000000000000000        0.0000000000000000     
   7.9146758591441824E-018   2.5571841823156917E-003   0.0000000000000000     
   1.1058862159352145E-017   6.4611251294992688E-003   0.0000000000000000     
   9.3241386833753381E-018   1.1711822841550732E-002   0.0000000000000000     
   3.2526065174565133E-018   1.8309277318470079E-002   0.0000000000000000     
   0.0000000000000000        0.0000000000000000        0.0000000000000000     
  -8.9383336793693344E-004   2.5818500930976677E-003   0.0000000000000000     
  -1.7686281351409405E-003   6.5101907220241097E-003   0.0000000000000000     
  -2.6243843016120214E-003   1.1785021886779327E-002   0.0000000000000000     
  -3.4611018673501759E-003   1.8406343587363316E-002   0.0000000000000000     
   0.0000000000000000        0.0000000000000000        0.0000000000000000     
  -1.7745813572188638E-003   2.6558478254436152E-003   0.0000000000000000     
  -3.5432689135074572E-003   6.6573874995986696E-003   0.0000000000000000     
  -5.3060626688657790E-003   1.2004619022465166E-002   0.0000000000000000     
  -7.0629626232938314E-003   1.8697542394043105E-002   0.0000000000000000     
   0.0000000000000000        0.0000000000000000        0.0000000000000000     
  -2.6422439678457825E-003   2.7791773793535315E-003   0.0000000000000000     
  -5.3239223350995367E-003   6.9027154622229494E-003   0.0000000000000000     
  -8.0450351017612651E-003   1.2370614248608256E-002   0.0000000000000000     
  -1.0805582267830965E-002   1.9182873738509451E-002   0.0000000000000000     
   0.0000000000000000        0.0000000000000000        0.0000000000000000     
  -3.4968211998176904E-003   2.9518387548274185E-003   0.0000000000000000     
  -7.1105883999171820E-003   7.2461746098969491E-003   0.0000000000000000     
  -1.0841301600298477E-002   1.2883007565208592E-002   0.0000000000000000     
  -1.4688960800961572E-002   1.9862337620762345E-002   0.0000000000000000     
   3.2526065174565133E-018   1.8309277318470079E-002   0.0000000000000000     
  -1.0842021724855044E-019   2.6047481814928719E-002   0.0000000000000000     
   6.9931040125315036E-018   3.4720429585598067E-002   0.0000000000000000     
   2.4950202494322671E-017   4.4328120630478099E-002   0.0000000000000000     
   5.2475385148298415E-017   5.4870554949568842E-002   0.0000000000000000     
  -3.4611018673501759E-003   1.8406343587363316E-002   0.0000000000000000     
  -4.2851889139919695E-003   2.6164752458009841E-002   0.0000000000000000     
  -5.1030535231739648E-003   3.4850845132952668E-002   0.0000000000000000     
  -5.9146956948961668E-003   4.4464621612191793E-002   0.0000000000000000     
  -6.7201154291585668E-003   5.5006081895727227E-002   0.0000000000000000     
  -7.0629626232938314E-003   1.8697542394043105E-002   0.0000000000000000     
  -8.7965087015985429E-003   2.6516564387253316E-002   0.0000000000000000     
  -1.0489240828586852E-002   3.5242091775016617E-002   0.0000000000000000     
  -1.2141159004258746E-002   4.4874124557333035E-002   0.0000000000000000     
  -1.3752263228614236E-002   5.5412662734202547E-002   0.0000000000000000     
  -1.0805582267830965E-002   1.9182873738509451E-002   0.0000000000000000     
  -1.3533959362819727E-002   2.7102917602659132E-002   0.0000000000000000     
  -1.6158561916238649E-002   3.5894169511789920E-002   0.0000000000000000     
  -1.8679389928087729E-002   4.5556629465901798E-002   0.0000000000000000     
  -2.1096443398366957E-002   5.6090297464994783E-002   0.0000000000000000     
  -1.4688960800961572E-002   1.9862337620762345E-002   0.0000000000000000     
  -1.8497540897655516E-002   2.7923812104227303E-002   0.0000000000000000     
  -2.2111016786129364E-002   3.6807078343272563E-002   0.0000000000000000     
  -2.5529388466383095E-002   4.6512136337898122E-002   0.0000000000000000     
  -2.8752655938416728E-002   5.7038986088103968E-002   0.0000000000000000     
   5.2475385148298415E-017   5.4870554949568842E-002   0.0000000000000000     
   8.9555099447302666E-017   6.6211396738580702E-002   0.0000000000000000     