 <VTKFile type="UnstructuredGrid"  version="0.1"   >
 <UnstructuredGrid>
 <Piece  NumberOfPoints="          1600 "  NumberOfCells="         1024 ">
 <Points>
 <DataArray  type="Float64" NumberOfComponents="3"  format="ascii" >
   0.0000000000000000        0.0000000000000000        0.0000000000000000     
   3.1250000000000000E-002   0.0000000000000000        0.0000000000000000     
   6.2500000000000000E-002   0.0000000000000000        0.0000000000000000     
   9.3750000000000000E-002   0.0000000000000000        0.0000000000000000     
  0.12500000000000000        0.0000000000000000        0.0000000000000000     
   0.0000000000000000        3.1250000000000000E-002   0.0000000000000000     
   3.1250000000000000E-002   3.1250000000000000E-002   0.0000000000000000     
   6.2500000000000000E-002   3.1250000000000000E-002   0.0000000000000000     
   9.3750000000000000E-002   3.1250000000000000E-002   0.0000000000000000     
  0.12500000000000000        3.1250000000000000E-002   0.0000000000000000     
   0.0000000000000000        6.2500000000000000E-002   0.0000000000000000     
   3.1250000000000000E-002   6.2500000000000000E-002   0.0000000000000000     
   6.2500000000000000E-002   6.2500000000000000E-002   0.0000000000000000     
   9.3750000000000000E-002   6.2500000000000000E-002   0.0000000000000000     
  0.12500000000000000        6.2500000000000000E-002   0.0000000000000000     
   0.0000000000000000        9.3750000000000000E-002   0.0000000000000000     
   3.1250000000000000E-002   9.3750000000000000E-002   0.0000000000000000     
   6.2500000000000000E-002   9.3750000000000000E-002   0.0000000000000000     
   9.3750000000000000E-002   9.3750000000000000E-002   0.0000000000000000     
  0.12500000000000000        9.3750000000000000E-002   0.0000000000000000     
   0.0000000000000000       0.12500000000000000        0.0000000000000000     
   3.1250000000000000E-002  0.12500000000000000        0.0000000000000000     
   6.2500000000000000E-002  0.12500000000000000        0.0000000000000000     
   9.3750000000000000E-002  0.12500000000000000        0.0000000000000000     
  0.12500000000000000       0.12500000000000000        0.0000000000000000     
  0.12500000000000000        0.0000000000000000        0.0000000000000000     
  0.15625000000000000        0.0000000000000000        0.0000000000000000     
  0.18750000000000000        0.0000000000000000        0.0000000000000000     
  0.21875000000000000        0.0000000000000000        0.0000000000000000     
  0.25000000000000000        0.0000000000000000        0.0000000000000000     
  0.12500000000000000        3.1250000000000000E-002   0.0000000000000000     
  0.15625000000000000        3.1250000000000000E-002   0.0000000000000000     
  0.18750000000000000        3.1250000000000000E-002   0.0000000000000000     
  0.21875000000000000        3.1250000000000000E-002   0.0000000000000000     
  0.25000000000000000        3.1250000000000000E-002   0.0000000000000000     
  0.12500000000000000        6.2500000000000000E-002   0.0000000000000000     
  0.15625000000000000        6.2500000000000000E-002   0.0000000000000000     
  0.18750000000000000        6.2500000000000000E-002   0.0000000000000000     
  0.21875000000000000        6.2500000000000000E-002   0.0000000000000000     
  0.25000000000000000        6.2500000000000000E-002   0.0000000000000000     
  0.12500000000000000        9.3750000000000000E-002   0.0000000000000000     
  0.15625000000000000        9.3750000000000000E-002   0.0000000000000000     
  0.18750000000000000        9.3750000000000000E-002   0.0000000000000000     
  0.21875000000000000        9.3750000000000000E-002   0.0000000000000000     
  0.25000000000000000        9.3750000000000000E-002   0.0000000000000000     
  0.12500000000000000       0.12500000000000000        0.0000000000000000     
  0.15625000000000000       0.12500000000000000        0.0000000000000000     
  0.18750000000000000       0.12500000000000000        0.0000000000000000     
  0.21875000000000000       0.12500000000000000        0.0000000000000000     
  0.25000000000000000       0.12500000000000000        0.0000000000000000     
  0.25000000000000000        0.0000000000000000        0.0000000000000000     
  0.28125000000000000        0.0000000000000000        0.0000000000000000     
  0.31250000000000000        0.0000000000000000        0.0000000000000000     
  0.34375000000000000        0.0000000000000000        0.0000000000000000     
  0.37500000000000000        0.0000000000000000        0.0000000000000000     
  0.25000000000000000        3.1250000000000000E-002   0.0000000000000000     
  0.28125000000000000        3.1250000000000000E-002   0.0000000000000000     
  0.31250000000000000        3.1250000000000000E-002   0.0000000000000000     
  0.34375000000000000        3.1250000000000000E-002   0.0000000000000000     
  0.37500000000000000        3.1250000000000000E-002   0.0000000000000000     
  0.25000000000000000        6.2500000000000000E-002   0.0000000000000000     
  0.28125000000000000        6.2500000000000000E-002   0.0000000000000000     
  0.31250000000000000        6.2500000000000000E-002   0.0000000000000000     
  0.34375000000000000        6.2500000000000000E-002   0.0000000000000000     
  0.37500000000000000        6.2500000000000000E-002   0.0000000000000000     
  0.25000000000000000        9.3750000000000000E-002   0.0000000000000000     
  0.28125000000000000        9.3750000000000000E-002   0.0000000000000000     
  0.31250000000000000        9.3750000000000000E-002   0.0000000000000000     
  0.34375000000000000        9.3750000000000000E-002   0.0000000000000000     
  0.37500000000000000        9.3750000000000000E-002   0.0000000000000000     
  0.25000000000000000       0.12500000000000000        0.0000000000000000     
  0.28125000000000000       0.12500000000000000        0.0000000000000000     
  0.31250000000000000       0.12500000000000000        0.0000000000000000     
  0.34375000000000000       0.12500000000000000        0.0000000000000000     
  0.37500000000000000       0.12500000000000000        0.0000000000000000     
  0.37500000000000000        0.0000000000000000        0.0000000000000000     
  0.40625000000000000        0.0000000000000000        0.0000000000000000     
  0.43750000000000000        0.0000000000000000        0.0000000000000000     
  0.46875000000000000        0.0000000000000000        0.0000000000000000     
  0.50000000000000000        0.0000000000000000        0.0000000000000000     
  0.37500000000000000        3.1250000000000000E-002   0.0000000000000000     
  0.40625000000000000        3.1250000000000000E-002   0.0000000000000000     
  0.43750000000000000        3.1250000000000000E-002   0.0000000000000000     
  0.46875000000000000        3.1250000000000000E-002   0.0000000000000000     
  0.50000000000000000        3.1250000000000000E-002   0.0000000000000000     
  0.37500000000000000        6.2500000000000000E-002   0.0000000000000000     
  0.40625000000000000        6.2500000000000000E-002   0.0000000000000000     
  0.43750000000000000        6.2500000000000000E-002   0.0000000000000000     
  0.46875000000000000        6.2500000000000000E-002   0.0000000000000000     
  0.50000000000000000        6.2500000000000000E-002   0.0000000000000000     
  0.37500000000000000        9.3750000000000000E-002   0.0000000000000000     
  0.40625000000000000        9.3750000000000000E-002   0.0000000000000000     
  0.43750000000000000        9.3750000000000000E-002   0.0000000000000000     
  0.46875000000000000        9.3750000000000000E-002   0.0000000000000000     
  0.50000000000000000        9.3750000000000000E-002   0.0000000000000000     
  0.37500000000000000       0.12500000000000000        0.0000000000000000     
  0.40625000000000000       0.12500000000000000        0.0000000000000000     
  0.43750000000000000       0.12500000000000000        0.0000000000000000     
  0.46875000000000000       0.12500000000000000        0.0000000000000000     
  0.50000000000000000       0.12500000000000000        0.0000000000000000     
  0.50000000000000000        0.0000000000000000        0.0000000000000000     
  0.53125000000000000        0.0000000000000000        0.0000000000000000     
  0.56250000000000000        0.0000000000000000        0.0000000000000000     
  0.59375000000000000        0.0000000000000000        0.0000000000000000     
  0.62500000000000000        0.0000000000000000        0.0000000000000000     
  0.50000000000000000        3.1250000000000000E-002   0.0000000000000000     
  0.53125000000000000        3.1250000000000000E-002   0.0000000000000000     
  0.56250000000000000        3.1250000000000000E-002   0.0000000000000000     
  0.59375000000000000        3.1250000000000000E-002   0.0000000000000000     
  0.62500000000000000        3.1250000000000000E-002   0.0000000000000000     
  0.50000000000000000        6.2500000000000000E-002   0.0000000000000000     
  0.53125000000000000        6.2500000000000000E-002   0.0000000000000000     
  0.56250000000000000        6.2500000000000000E-002   0.0000000000000000     
  0.59375000000000000        6.2500000000000000E-002   0.0000000000000000     
  0.62500000000000000        6.2500000000000000E-002   0.0000000000000000     
  0.50000000000000000        9.3750000000000000E-002   0.0000000000000000     
  0.53125000000000000        9.3750000000000000E-002   0.0000000000000000     
  0.56250000000000000        9.3750000000000000E-002   0.0000000000000000     
  0.59375000000000000        9.3750000000000000E-002   0.0000000000000000     
  0.62500000000000000        9.3750000000000000E-002   0.0000000000000000     
  0.50000000000000000       0.12500000000000000        0.0000000000000000     
  0.53125000000000000       0.12500000000000000        0.0000000000000000     
  0.56250000000000000       0.12500000000000000        0.0000000000000000     
[...]
 <PointData>
 <DataArray  type="Float64" Name="disp" NumberOfComponents="3" format="ascii">
   0.0000000000000000        0.0000000000000000        0.0000000000000000     
   6.0961727314084602E-003   3.7901018881850495E-003   0.0000000000000000     
   1.1666461212351568E-002   7.3235303415932051E-003   0.0000000000000000     
   1.6710865442829327E-002   1.0600285360224466E-002   0.0000000000000000     
   2.1229385422841730E-002   1.3620366944078834E-002   0.0000000000000000     
   0.0000000000000000        0.0000000000000000        0.0000000000000000     
   4.8912898942308543E-003   3.0218328838406789E-003   0.0000000000000000     
   9.5739514891125341E-003   6.0602183005254899E-003   0.0000000000000000     
   1.4047984784645041E-002   9.1151562500544348E-003   0.0000000000000000     
   1.8313389780828374E-002   1.2186646732427510E-002   0.0000000000000000     
   0.0000000000000000        0.0000000000000000        0.0000000000000000     
   3.9536569234585083E-003   2.4248476794621410E-003   0.0000000000000000     
   7.9108438628938509E-003   5.0626006942811018E-003   0.0000000000000000     
   1.1871560818306030E-002   7.9132590444568815E-003   0.0000000000000000     
   1.5835807789695042E-002   1.0976822729989481E-002   0.0000000000000000     
   0.0000000000000000        0.0000000000000000        0.0000000000000000     
   3.2832738190914203E-003   1.9991462750494362E-003   0.0000000000000000     
   6.6771383336955183E-003   4.3306775228600398E-003   0.0000000000000000     
   1.0181593543812293E-002   6.9945937434318104E-003   0.0000000000000000     
   1.3796639449441745E-002   9.9908949367647510E-003   0.0000000000000000     
   0.0000000000000000        0.0000000000000000        0.0000000000000000     
   2.8801405811295921E-003   1.7447286706025634E-003   0.0000000000000000     
   5.8728349015175355E-003   3.8644487862623030E-003   0.0000000000000000     
   8.9780829611638309E-003   6.3591603469792188E-003   0.0000000000000000     
   1.2195884760068477E-002   9.2288633527533113E-003   0.0000000000000000     
   2.1229385422841730E-002   1.3620366944078834E-002   0.0000000000000000     
   2.5434695880754123E-002   1.6613833942600787E-002   0.0000000000000000     
   2.9539471544931854E-002   1.9810745205234803E-002   0.0000000000000000     
   3.3543712415374918E-002   2.3211100731980891E-002   0.0000000000000000     
   3.7447418492083322E-002   2.6814900522839042E-002   0.0000000000000000     
   1.8313389780828374E-002   1.2186646732427510E-002   0.0000000000000000     
   2.2408303023404151E-002   1.5342558771071319E-002   0.0000000000000000     
   2.6370861058113995E-002   1.8650761389412455E-002   0.0000000000000000     
   3.0201063884957906E-002   2.2111254587450918E-002   0.0000000000000000     
   3.3898911503935890E-002   2.5724038365186712E-002   0.0000000000000000     
   1.5835807789695042E-002   1.0976822729989481E-002   0.0000000000000000     
   1.9731808760473733E-002   1.4211734075805020E-002   0.0000000000000000     
   2.3487787714054940E-002   1.7576435406829613E-002   0.0000000000000000     
   2.7103744650438660E-002   2.1070926723063262E-002   0.0000000000000000     
   3.0579679569624898E-002   2.4695208024505963E-002   0.0000000000000000     
   1.3796639449441745E-002   9.9908949367647510E-003   0.0000000000000000     
   1.7405213091962878E-002   1.3221359856801894E-002   0.0000000000000000     
   2.0890251512754691E-002   1.6587767257486289E-002   0.0000000000000000     
   2.4251754711817185E-002   2.0090117138817927E-002   0.0000000000000000     
   2.7489722689150356E-002   2.3728409500796816E-002   0.0000000000000000     
   1.2195884760068477E-002   9.2288633527533113E-003   0.0000000000000000     
   1.5428516017871577E-002   1.2371436114061942E-002   0.0000000000000000     
   1.8578252454213243E-002   1.5684756941382473E-002   0.0000000000000000     
   2.1645094069093467E-002   1.9168825834714909E-002   0.0000000000000000     
   2.4629040862512254E-002   2.2823642794059247E-002   0.0000000000000000     
   3.7447418492083322E-002   2.6814900522839042E-002   0.0000000000000000     
   4.1255952572931340E-002   3.0618813813291106E-002   0.0000000000000000     
   4.4974677455793262E-002   3.4619509838818931E-002   0.0000000000000000     
   4.8603593140669081E-002   3.8816988599422522E-002   0.0000000000000000     
   5.2142699627558797E-002   4.3211250095101870E-002   0.0000000000000000     
   3.3898911503935890E-002   2.5724038365186712E-002   0.0000000000000000     
   3.7487774520092006E-002   2.9519143148258997E-002   0.0000000000000000     
   4.0991023538470325E-002   3.3526599362306939E-002   0.0000000000000000     
   4.4408658559070842E-002   3.7746407007330549E-002   0.0000000000000000     
   4.7740679581893562E-002   4.2178566083329816E-002   0.0000000000000000     
   3.0579679569624898E-002   2.4695208024505963E-002   0.0000000000000000     
   3.3944724060156736E-002   2.8494816920592674E-002   0.0000000000000000     
   3.7228009710577249E-002   3.2515291020758362E-002   0.0000000000000000     
   4.0429536520886440E-002   3.6756630325003009E-002   0.0000000000000000     
   4.3549304491084309E-002   4.1218834833326626E-002   0.0000000000000000     
   2.7489722689150356E-002   2.3728409500796816E-002   0.0000000000000000     
   3.0626801193125535E-002   2.7545835130292160E-002   0.0000000000000000     
   3.3685635972114047E-002   3.1585584814173194E-002   0.0000000000000000     
   3.6666227026115876E-002   3.5847658552439911E-002   0.0000000000000000     
   3.9568574355131038E-002   4.0332056345092307E-002   0.0000000000000000     
   2.4629040862512254E-002   2.2823642794059247E-002   0.0000000000000000     
   2.7534005918998398E-002   2.6672197777357437E-002   0.0000000000000000     
   3.0363902323080696E-002   3.0737480742551435E-002   0.0000000000000000     
   3.3118730074759149E-002   3.5019491689641247E-002   0.0000000000000000     
   3.5798489174033749E-002   3.9518230618626853E-002   0.0000000000000000     
   5.2142699627558797E-002   4.3211250095101870E-002   0.0000000000000000     
   5.5585005831745936E-002   4.7804359995128186E-002   0.0000000000000000     
   5.8923520668514001E-002   5.2598383968772658E-002   0.0000000000000000     
   6.2158244137862986E-002   5.7593322016035300E-002   0.0000000000000000     
   6.5289176239792898E-002   6.2789174136916093E-002   0.0000000000000000     
   4.7740679581893562E-002   4.2178566083329816E-002   0.0000000000000000     
   5.0982050673943125E-002   4.6814305162433303E-002   0.0000000000000000     
   5.4127735902224132E-002   5.1644852816769581E-002   0.0000000000000000     
   5.7177735266736612E-002   5.6670209046338640E-002   0.0000000000000000     
   6.0132048767480552E-002   6.1890373851140497E-002   0.0000000000000000     
   4.3549304491084309E-002   4.1218834833326626E-002   0.0000000000000000     
   4.6584296695552259E-002   4.5887490334549759E-002   0.0000000000000000     
   4.9531496208671671E-002   5.0748182617492955E-002   0.0000000000000000     
   5.2390903030442547E-002   5.5800911682156194E-002   0.0000000000000000     
   5.5162517160864899E-002   6.1045677528539510E-002   0.0000000000000000     
   3.9568574355131038E-002   4.0332056345092307E-002   0.0000000000000000     
   4.2391743896573346E-002   4.5023915511477546E-002   0.0000000000000000     
   4.5134801587856592E-002   4.9908373370942762E-002   0.0000000000000000     
   4.7797747428980811E-002   5.4985429923487976E-002   0.0000000000000000     
   5.0380581419945954E-002   6.0255085169113175E-002   0.0000000000000000     
   3.5798489174033749E-002   3.9518230618626853E-002   0.0000000000000000     
   3.8404392277006393E-002   4.4223580693216656E-002   0.0000000000000000     
   4.0937652039778921E-002   4.9125425077119020E-002   0.0000000000000000     
   4.3398268462351362E-002   5.4223763770333958E-002   0.0000000000000000     
   4.5786241544723709E-002   5.9518596772861448E-002   0.0000000000000000     
   6.5289176239792898E-002   6.2789174136916093E-002   0.0000000000000000     
   6.8327968362530717E-002   6.8173951225729681E-002   0.0000000000000000     
   7.1286271894303435E-002   7.3735664176790700E-002   0.0000000000000000     
   7.4164086835111026E-002   7.9474312990099091E-002   0.0000000000000000     
   7.6961413184953531E-002   8.5389897665654912E-002   0.0000000000000000     
   6.0132048767480552E-002   6.1890373851140497E-002   0.0000000000000000     
   6.2996606722591664E-002   6.7297918828944384E-002   0.0000000000000000     
   6.5777339450205641E-002   7.2885415577519555E-002   0.0000000000000000     
   6.8474246950322504E-002   7.8652864096866046E-002   0.0000000000000000     
   7.1087329222942225E-002   8.4600264386983814E-002   0.0000000000000000     
   5.5162517160864899E-002   6.1045677528539510E-002   0.0000000000000000     
   5.7848117087454465E-002   6.6477264883738965E-002   0.0000000000000000     
   6.0449481297726954E-002   7.2090458474850627E-002   0.0000000000000000     
   6.2966609791682421E-002   7.7885258301874497E-002   0.0000000000000000     
   6.5399502569320811E-002   8.3861664364810573E-002   0.0000000000000000     
   5.0380581419945954E-002   6.0255085169113175E-002   0.0000000000000000     
   5.2882499457119134E-002   6.5711989390113426E-002   0.0000000000000000     
   5.5302697436867401E-002   7.1350792868783874E-002   0.0000000000000000     
   5.7641175359190784E-002   7.7171495605124471E-002   0.0000000000000000     
   5.9897933224089255E-002   8.3174097599135188E-002   0.0000000000000000     
   4.5786241544723709E-002   5.9518596772861448E-002   0.0000000000000000     
   4.8099753831585670E-002   6.5002092348067794E-002   0.0000000000000000     
   5.0336987867626970E-002   7.0666418759319283E-002   0.0000000000000000     
   5.2497943652847601E-002   7.6511576006615928E-002   0.0000000000000000     
   5.4582621187247563E-002   8.2537564089957716E-002   0.0000000000000000     
   7.6961413184953531E-002   8.5389897665654912E-002   0.0000000000000000     
   7.9667723370643123E-002   9.1479244866199100E-002   0.0000000000000000     
   8.2272489818992045E-002   9.7739181254472590E-002   0.0000000000000000     
   8.4775712530000269E-002  0.10416970683047537        0.0000000000000000     
   8.7177391503667837E-002  0.11077082159420748        0.0000000000000000     
   7.1087329222942225E-002   8.4600264386983814E-002   0.0000000000000000     
   7.3611390393170106E-002   9.0721257999105478E-002   0.0000000000000000     
   7.6041234586111395E-002   9.7009486484463656E-002   0.0000000000000000     
   7.8376861801766062E-002  0.10346494984305833        0.0000000000000000     
   8.0618272040134151E-002  0.11008764807488952        0.0000000000000000     
   6.5399502569320811E-002   8.3861664364810573E-002   0.0000000000000000     
   6.7746682131447716E-002   9.0011142330132798E-002   0.0000000000000000     
   7.0006670978868701E-002   9.6325157864315183E-002   0.0000000000000000     
   7.2179469111583780E-002  0.10280371096735763        0.0000000000000000     
   7.4265076529592911E-002  0.10944680163926025        0.0000000000000000     
   5.9897933224089255E-002   8.3174097599135188E-002   0.0000000000000000     
   6.2073598585475953E-002   8.9348897859281115E-002   0.0000000000000000     
   6.4168798997263993E-002   9.5686195394027118E-002   0.0000000000000000     
   6.6183534459453380E-002  0.10218599020337332        0.0000000000000000     
   6.8117804972044102E-002  0.10884828228731966        0.0000000000000000     
   5.4582621187247563E-002   8.2537564089957716E-002   0.0000000000000000     
   5.6592139755254803E-002   8.8734524586550345E-002   0.0000000000000000     
   5.8527618641297248E-002   9.5092599073599557E-002   0.0000000000000000     
   6.0389057845374905E-002  0.10161178755110536        0.0000000000000000     
   6.2176457367487739E-002  0.10829209001906773        0.0000000000000000     
   8.7177391503667837E-002  0.11077082159420748        0.0000000000000000     
   8.9465220873438556E-002  0.11751113480504907        0.0000000000000000     
   9.1626894772756290E-002  0.12435925572238044        0.0000000000000000     
   9.3662413201621011E-002  0.13131518434620146        0.0000000000000000     
   9.5571776160032762E-002  0.13837892067651225        0.0000000000000000     
   8.0618272040134151E-002  0.11008764807488952        0.0000000000000000     
   8.2764251562652214E-002  0.11685098963858717        0.0000000000000000     
   8.4813586630756818E-002  0.12372838299278126        0.0000000000000000     
   8.6766277244447965E-002  0.13071982813747174        0.0000000000000000     
   8.8622323403725667E-002  0.13782532507265871        0.0000000000000000     
   7.4265076529592911E-002  0.10944680163926025        0.0000000000000000     
   7.6268982633863544E-002  0.11623189875215229        0.0000000000000000     
   7.8196676825363090E-002  0.12313647117816305        0.0000000000000000     
   8.0048159104091507E-002  0.13016051891729258        0.0000000000000000     
   8.1823429470048850E-002  0.13730404196954082        0.0000000000000000     
   6.8117804972044102E-002  0.10884828228731966        0.0000000000000000     
   6.9979414087072561E-002  0.11565386214574440        0.0000000000000000     
   7.1776165356575064E-002  0.12258352027852580        0.0000000000000000     
   7.3508058780551652E-002  0.12963725668566389        0.0000000000000000     
   7.5175094359002326E-002  0.13681507136715859        0.0000000000000000     
   6.2176457367487739E-002  0.10829209001906773        0.0000000000000000     
   6.3895545922279237E-002  0.11511687981936349        0.0000000000000000     
   6.5552052224392796E-002  0.12206953029386948        0.0000000000000000     
   6.7145976273828401E-002  0.12915004144258566        0.0000000000000000     
   6.8677318070586080E-002  0.13635841326551204        0.0000000000000000     
   9.5571776160032762E-002  0.13837892067651225        0.0000000000000000     
   9.7427022873067731E-002  0.14557103650369740        0.0000000000000000     
   9.9300192565802151E-002  0.15291210361814164        0.0000000000000000     
  0.10119128523823605       0.16040212201984494        0.0000000000000000     
  0.10310030089036940       0.16804109170880729        0.0000000000000000     
   8.8622323403725667E-002  0.13782532507265871        0.0000000000000000     
   9.0401698766917310E-002  0.14505437829494797        0.0000000000000000     
   9.2124376992350265E-002  0.15241649230094539        0.0000000000000000     
   9.3790358080024616E-002  0.15991166709065108        0.0000000000000000     
   9.5399642029940265E-002  0.16753990266406493        0.0000000000000000     
   8.1823429470048850E-002  0.13730404196954082        0.0000000000000000     
   8.3509968808683083E-002  0.14456813341287875        0.0000000000000000     
   8.5095258005442168E-002  0.15195388632527726        0.0000000000000000     
   8.6579297060326132E-002  0.15946130070673631        0.0000000000000000     
   8.7962085973334991E-002  0.16709037655725595        0.0000000000000000     
   7.5175094359002326E-002  0.13681507136715859        0.0000000000000000     
   7.6751832998365035E-002  0.14411230185748980        0.0000000000000000     
   7.8212835605077816E-002  0.15152428569113710        0.0000000000000000     
   7.9558102179140652E-002  0.15905102286810066        0.0000000000000000     
   8.0787632720553545E-002  0.16669251338838037        0.0000000000000000     
   6.8677318070586080E-002  0.13635841326551204        0.0000000000000000     
   7.0127291335963224E-002  0.14368688362878104        0.0000000000000000     
   7.1477109791257251E-002  0.15112769039852508        0.0000000000000000     
   7.2726773436468162E-002  0.15868083357474413        0.0000000000000000     
   7.3876282271595928E-002  0.16634631315743820        0.0000000000000000     
   0.0000000000000000        0.0000000000000000        0.0000000000000000     
   2.8801405811295921E-003   1.7447286706025634E-003   0.0000000000000000     
   5.8728349015175355E-003   3.8644487862623030E-003   0.0000000000000000     
   8.9780829611638309E-003   6.3591603469792188E-003   0.0000000000000000     
   1.2195884760068477E-002   9.2288633527533113E-003   0.0000000000000000     
   0.0000000000000000        0.0000000000000000        0.0000000000000000     
   2.6103990561708213E-003   1.5888909566420272E-003   0.0000000000000000     
   5.2899215746788960E-003   3.5565568249902447E-003   0.0000000000000000     
   8.0385675555242238E-003   5.9029976050446534E-003   0.0000000000000000     
   1.0856336998706802E-002   8.6282132968052531E-003   0.0000000000000000     
   0.0000000000000000        0.0000000000000000        0.0000000000000000     
   2.3401910908129055E-003   1.4589292236883307E-003   0.0000000000000000     
   4.7203863614985898E-003   3.2996439795462172E-003   0.0000000000000000     
   7.1405858120570515E-003   5.5221442675736608E-003   0.0000000000000000     
   9.6007894424882910E-003   8.1264300877706575E-003   0.0000000000000000     
   0.0000000000000000        0.0000000000000000        0.0000000000000000     
   2.0695166850558458E-003   1.3548434717414741E-003   0.0000000000000000     
   4.1642292619766177E-003   3.0937102499302210E-003   0.0000000000000000     
   6.2841377307623156E-003   5.2166003345662402E-003   0.0000000000000000     
   8.4292420914129397E-003   7.7235137256495313E-003   0.0000000000000000     
   0.0000000000000000        0.0000000000000000        0.0000000000000000     
   1.7983758388996410E-003   1.2766337008014576E-003   0.0000000000000000     
   3.6214502761129793E-003   2.9387556361422551E-003   0.0000000000000000     
   5.4692233116400155E-003   4.9863658060223925E-003   0.0000000000000000     
   7.3416949454807486E-003   7.4194642104418685E-003   0.0000000000000000     
   1.2195884760068477E-002   9.2288633527533113E-003   0.0000000000000000     
   1.5428516017871577E-002   1.2371436114061942E-002   0.0000000000000000     
   1.8578252454213243E-002   1.5684756941382473E-002   0.0000000000000000     
   2.1645094069093467E-002   1.9168825834714909E-002   0.0000000000000000     
   2.4629040862512254E-002   2.2823642794059247E-002   0.0000000000000000     
   1.0856336998706802E-002   8.6282132968052531E-003   0.0000000000000000     
   1.3689872385712738E-002   1.1650052145315472E-002   0.0000000000000000     
   1.6485816198028132E-002   1.4886362395618746E-002   0.0000000000000000     
   1.9244168435652978E-002   1.8337144047715075E-002   0.0000000000000000     
   2.1964929098587278E-002   2.2002397101604461E-002   0.0000000000000000     
   9.6007894424882910E-003   8.1264300877706575E-003   0.0000000000000000     
   1.2077437042999250E-002   1.1045297248292804E-002   0.0000000000000000     
   1.4546968403796873E-002   1.4211541557295681E-002   0.0000000000000000     
   1.7009383524881159E-002   1.7625163014779295E-002   0.0000000000000000     
   1.9464682406252105E-002   2.1286161620743649E-002   0.0000000000000000     
   8.4292420914129397E-003   7.7235137256495313E-003   0.0000000000000000     
   1.0591209989731117E-002   1.0557171422993932E-002   0.0000000000000000     
   1.2761709071519477E-002   1.3660294426413280E-002   0.0000000000000000     
   1.4940739336778018E-002   1.7032882735907574E-002   0.0000000000000000     
   1.7128300785506739E-002   2.0674936351476807E-002   0.0000000000000000     
   7.3416949454807486E-003   7.4194642104418685E-003   0.0000000000000000     
   9.2311912259083369E-003   1.0185674669418858E-002   0.0000000000000000     
   1.1130038201195938E-002   1.3232621002971533E-002   0.0000000000000000     
   1.3038235871343550E-002   1.6560303211099896E-002   0.0000000000000000     
   1.4955784236351178E-002   2.0168721293803940E-002   0.0000000000000000     
   2.4629040862512254E-002   2.2823642794059247E-002   0.0000000000000000     
   2.7534005918998398E-002   2.6672197777357437E-002   0.0000000000000000     