 <VTKFile type="UnstructuredGrid"  version="0.1"   >
 <UnstructuredGrid>
 <Piece  NumberOfPoints="          1600 "  NumberOfCells="         1024 ">
 <Points>
 <DataArray  type="Float64" NumberOfComponents="3"  format="ascii" >
   0.0000000000000000        0.0000000000000000        0.0000000000000000     
   3.1250000000000000E-002   0.0000000000000000        0.0000000000000000     
   6.2500000000000000E-002   0.0000000000000000        0.0000000000000000     
   9.3750000000000000E-002   0.0000000000000000        0.0000000000000000     
  0.12500000000000000        0.0000000000000000        0.0000000000000000     
   0.0000000000000000        3.1250000000000000E-002   0.0000000000000000     
   3.1250000000000000E-002   3.1250000000000000E-002   0.0000000000000000     
   6.2500000000000000E-002   3.1250000000000000E-002   0.0000000000000000     
   9.3750000000000000E-002   3.1250000000000000E-002   0.0000000000000000     
  0.12500000000000000        3.1250000000000000E-002   0.0000000000000000     
   0.0000000000000000        6.2500000000000000E-002   0.0000000000000000     
   3.1250000000000000E-002   6.2500000000000000E-002   0.0000000000000000     
   6.2500000000000000E-002   6.2500000000000000E-002   0.0000000000000000     
   9.3750000000000000E-002   6.2500000000000000E-002   0.0000000000000000     
  0.12500000000000000        6.2500000000000000E-002   0.0000000000000000     
   0.0000000000000000        9.3750000000000000E-002   0.0000000000000000     
   3.1250000000000000E-002   9.3750000000000000E-002   0.0000000000000000     
   6.2500000000000000E-002   9.3750000000000000E-002   0.0000000000000000     
   9.3750000000000000E-002   9.3750000000000000E-002   0.0000000000000000     
  0.12500000000000000        9.3750000000000000E-002   0.0000000000000000     
   0.0000000000000000       0.12500000000000000        0.0000000000000000     
   3.1250000000000000E-002  0.12500000000000000        0.0000000000000000     
   6.2500000000000000E-002  0.12500000000000000        0.0000000000000000     
   9.3750000000000000E-002  0.12500000000000000        0.0000000000000000     
  0.12500000000000000       0.12500000000000000        0.0000000000000000     
  0.12500000000000000        0.0000000000000000        0.0000000000000000     
  0.15625000000000000        0.0000000000000000        0.0000000000000000     
  0.18750000000000000        0.0000000000000000        0.0000000000000000     
  0.21875000000000000        0.0000000000000000        0.0000000000000000     
  0.25000000000000000        0.0000000000000000        0.0000000000000000     
  0.12500000000000000        3.1250000000000000E-002   0.0000000000000000     
  0.15625000000000000        3.1250000000000000E-002   0.0000000000000000     
  0.18750000000000000        3.1250000000000000E-002   0.0000000000000000     
  0.21875000000000000        3.1250000000000000E-002   0.0000000000000000     
  0.25000000000000000        3.1250000000000000E-002   0.0000000000000000     
  0.12500000000000000        6.2500000000000000E-002   0.0000000000000000     
  0.15625000000000000        6.2500000000000000E-002   0.0000000000000000     
  0.18750000000000000        6.2500000000000000E-002   0.0000000000000000     
  0.21875000000000000        6.2500000000000000E-002   0.0000000000000000     
  0.25000000000000000        6.2500000000000000E-002   0.0000000000000000     
  0.12500000000000000        9.3750000000000000E-002   0.0000000000000000     
  0.15625000000000000        9.3750000000000000E-002   0.0000000000000000     
  0.18750000000000000        9.3750000000000000E-002   0.0000000000000000     
  0.21875000000000000        9.3750000000000000E-002   0.0000000000000000     
  0.25000000000000000        9.3750000000000000E-002   0.0000000000000000     
  0.12500000000000000       0.12500000000000000        0.0000000000000000     
  0.15625000000000000       0.12500000000000000        0.0000000000000000     
  0.18750000000000000       0.12500000000000000        0.0000000000000000     
  0.21875000000000000       0.12500000000000000        0.0000000000000000     
  0.25000000000000000       0.12500000000000000        0.0000000000000000     
  0.25000000000000000        0.0000000000000000        0.0000000000000000     
  0.28125000000000000        0.0000000000000000        0.0000000000000000     
  0.31250000000000000        0.0000000000000000        0.0000000000000000     
  0.34375000000000000        0.0000000000000000        0.0000000000000000     
  0.37500000000000000        0.0000000000000000        0.0000000000000000     
  0.25000000000000000        3.1250000000000000E-002   0.0000000000000000     
  0.28125000000000000        3.1250000000000000E-002   0.0000000000000000     
  0.31250000000000000        3.1250000000000000E-002   0.0000000000000000     
  0.34375000000000000        3.1250000000000000E-002   0.0000000000000000     
  0.37500000000000000        3.1250000000000000E-002   0.0000000000000000     
  0.25000000000000000        6.2500000000000000E-002   0.0000000000000000     
  0.28125000000000000        6.2500000000000000E-002   0.0000000000000000     
  0.31250000000000000        6.2500000000000000E-002   0.0000000000000000     
  0.34375000000000000        6.2500000000000000E-002   0.0000000000000000     
  0.37500000000000000        6.2500000000000000E-002   0.0000000000000000     
  0.25000000000000000        9.3750000000000000E-002   0.0000000000000000     
  0.28125000000000000        9.3750000000000000E-002   0.0000000000000000     
  0.31250000000000000        9.3750000000000000E-002   0.0000000000000000     
  0.34375000000000000        9.3750000000000000E-002   0.0000000000000000     
  0.37500000000000000        9.3750000000000000E-002   0.0000000000000000     
  0.25000000000000000       0.12500000000000000        0.0000000000000000     
  0.28125000000000000       0.12500000000000000        0.0000000000000000     
  0.31250000000000000       0.12500000000000000        0.0000000000000000     
  0.34375000000000000       0.12500000000000000        0.0000000000000000     
  0.37500000000000000       0.12500000000000000        0.0000000000000000     
  0.37500000000000000        0.0000000000000000        0.0000000000000000     
  0.40625000000000000        0.0000000000000000        0.0000000000000000     
  0.43750000000000000        0.0000000000000000        0.0000000000000000     
  0.46875000000000000        0.0000000000000000        0.0000000000000000     
  0.50000000000000000        0.0000000000000000        0.0000000000000000     
  0.37500000000000000        3.1250000000000000E-002   0.0000000000000000     
  0.40625000000000000        3.1250000000000000E-002   0.0000000000000000     
  0.43750000000000000        3.1250000000000000E-002   0.0000000000000000     
  0.46875000000000000        3.1250000000000000E-002   0.0000000000000000     
  0.50000000000000000        3.1250000000000000E-002   0.0000000000000000     
  0.37500000000000000        6.2500000000000000E-002   0.0000000000000000     
  0.40625000000000000        6.2500000000000000E-002   0.0000000000000000     
  0.43750000000000000        6.2500000000000000E-002   0.0000000000000000     
  0.46875000000000000        6.2500000000000000E-002   0.0000000000000000     
  0.50000000000000000        6.2500000000000000E-002   0.0000000000000000     
  0.37500000000000000        9.3750000000000000E-002   0.0000000000000000     
  0.40625000000000000        9.3750000000000000E-002   0.0000000000000000     
  0.43750000000000000        9.3750000000000000E-002   0.0000000000000000     
  0.46875000000000000        9.3750000000000000E-002   0.0000000000000000     
  0.50000000000000000        9.3750000000000000E-002   0.0000000000000000     
  0.37500000000000000       0.12500000000000000        0.0000000000000000     
  0.40625000000000000       0.12500000000000000        0.0000000000000000     
  0.43750000000000000       0.12500000000000000        0.0000000000000000     
  0.46875000000000000       0.12500000000000000        0.0000000000000000     
  0.50000000000000000       0.12500000000000000        0.0000000000000000     
  0.50000000000000000        0.0000000000000000        0.0000000000000000     
  0.53125000000000000        0.0000000000000000        0.0000000000000000     
  0.56250000000000000        0.0000000000000000        0.0000000000000000     
  0.59375000000000000        0.0000000000000000        0.0000000000000000     
  0.62500000000000000        0.0000000000000000        0.0000000000000000     
  0.50000000000000000        3.1250000000000000E-002   0.0000000000000000     
  0.53125000000000000        3.1250000000000000E-002   0.0000000000000000     
  0.56250000000000000        3.1250000000000000E-002   0.0000000000000000     
  0.59375000000000000        3.1250000000000000E-002   0.0000000000000000     
  0.62500000000000000        3.1250000000000000E-002   0.0000000000000000     
  0.50000000000000000        6.2500000000000000E-002   0.0000000000000000     
  0.53125000000000000        6.2500000000000000E-002   0.0000000000000000     
  0.56250000000000000        6.2500000000000000E-002   0.0000000000000000     
  0.59375000000000000        6.2500000000000000E-002   0.0000000000000000     
  0.62500000000000000        6.2500000000000000E-002   0.0000000000000000     
  0.50000000000000000        9.3750000000000000E-002   0.0000000000000000     
  0.53125000000000000        9.3750000000000000E-002   0.0000000000000000     
  0.56250000000000000        9.3750000000000000E-002   0.0000000000000000     
  0.59375000000000000        9.3750000000000000E-002   0.0000000000000000     
  0.62500000000000000        9.3750000000000000E-002   0.0000000000000000     
  0.50000000000000000       0.12500000000000000        0.0000000000000000     
  0.53125000000000000       0.12500000000000000        0.0000000000000000     
  0.56250000000000000       0.12500000000000000        0.0000000000000000     
[...]
 <PointData>
 <DataArray  type="Float64" Name="disp" NumberOfComponents="3" format="ascii">
   0.0000000000000000        0.0000000000000000        0.0000000000000000     
   6.0956179375376163E-003   3.7697497227273408E-003   0.0000000000000000     
   1.1674312639848243E-002   7.2803278746491271E-003   0.0000000000000000     
   1.6736084106931878E-002   1.0531734455765360E-002   0.0000000000000000     
   2.1280932338788524E-002   1.3523969466076039E-002   0.0000000000000000     
   0.0000000000000000        0.0000000000000000        0.0000000000000000     
   4.8992517328989467E-003   2.9979385747925832E-003   0.0000000000000000     
   9.5954839626609008E-003   6.0104943398927874E-003   0.0000000000000000     
   1.4088696689285866E-002   9.0376672953006113E-003   0.0000000000000000     
   1.8378889912773838E-002   1.2079457441016055E-002   0.0000000000000000     
   0.0000000000000000        0.0000000000000000        0.0000000000000000     
   3.9658383322864815E-003   2.3985264461163472E-003   0.0000000000000000     
   7.9379779022235378E-003   5.0087363143249174E-003   0.0000000000000000     
   1.1916418709811166E-002   7.8306296046257128E-003   0.0000000000000000     
   1.5901160755049371E-002   1.0864206317018730E-002   0.0000000000000000     
   0.0000000000000000        0.0000000000000000        0.0000000000000000     
   3.2953777357002225E-003   1.9715133366986328E-003   0.0000000000000000     
   6.7017944585361505E-003   4.2750537979455204E-003   0.0000000000000000     
   1.0219250168507783E-002   6.9106213837406630E-003   0.0000000000000000     
   1.3847744865615118E-002   9.8782160940840604E-003   0.0000000000000000     
   0.0000000000000000        0.0000000000000000        0.0000000000000000     
   2.8878699431401705E-003   1.7168992465394399E-003   0.0000000000000000     
   5.8869336315987408E-003   3.8094467907545939E-003   0.0000000000000000     
   8.9971910653757134E-003   6.2776426326454629E-003   0.0000000000000000     
   1.2218642244471084E-002   9.1214867722120441E-003   0.0000000000000000     
   2.1280932338788524E-002   1.3523969466076039E-002   0.0000000000000000     
   2.5523529057654704E-002   1.6489687272481773E-002   0.0000000000000000     
   2.9678545985766937E-002   1.9661542241883174E-002   0.0000000000000000     
   3.3745983123125226E-002   2.3039534374280246E-002   0.0000000000000000     
   3.7725840469729564E-002   2.6623663669672986E-002   0.0000000000000000     
   1.8378889912773838E-002   1.2079457441016055E-002   0.0000000000000000     
   2.2507106755900529E-002   1.5205263258648233E-002   0.0000000000000000     
   2.6514390341441648E-002   1.8484483229806253E-002   0.0000000000000000     
   3.0400740669397196E-002   2.1917117354490111E-002   0.0000000000000000     
   3.4166157739767174E-002   2.5503165632699810E-002   0.0000000000000000     
   1.5901160755049371E-002   1.0864206317018730E-002   0.0000000000000000     
   1.9823416865291228E-002   1.4068584638011281E-002   0.0000000000000000     
   2.3614399867889827E-002   1.7402882754110675E-002   0.0000000000000000     
   2.7274109762845170E-002   2.0867100665316916E-002   0.0000000000000000     
   3.0802546550157243E-002   2.4461238371630001E-002   0.0000000000000000     
   1.3847744865615118E-002   9.8782160940840604E-003   0.0000000000000000     
   1.7472459385826797E-002   1.3079651410570920E-002   0.0000000000000000     
   2.0978574565111468E-002   1.6416740814796455E-002   0.0000000000000000     
   2.4366090403469126E-002   1.9889484306760668E-002   0.0000000000000000     
   2.7635006900899779E-002   2.3497881886463547E-002   0.0000000000000000     
   1.2218642244471084E-002   9.1214867722120441E-003   0.0000000000000000     
   1.5454234317507242E-002   1.2238463576327151E-002   0.0000000000000000     
   1.8606914433106577E-002   1.5526057411863588E-002   0.0000000000000000     
   2.1676682591269082E-002   1.8984268278821360E-002   0.0000000000000000     
   2.4663538791994764E-002   2.2613096177200462E-002   0.0000000000000000     
   3.7725840469729564E-002   2.6623663669672986E-002   0.0000000000000000     
   4.1637645974206855E-002   3.0415647390223462E-002   0.0000000000000000     
   4.5500927585183995E-002   3.4417202798093738E-002   0.0000000000000000     
   4.9315685302660964E-002   3.8628329893283832E-002   0.0000000000000000     
   5.3081919126637789E-002   4.3049028675793730E-002   0.0000000000000000     
   3.4166157739767174E-002   2.5503165632699810E-002   0.0000000000000000     
   3.7842512712538828E-002   2.9277617850073292E-002   0.0000000000000000     
   4.1461676747699398E-002   3.3275463792248501E-002   0.0000000000000000     
   4.5023649845248884E-002   3.7496703459225428E-002   0.0000000000000000     
   4.8528432005187291E-002   4.1941336851004082E-002   0.0000000000000000     
   3.0802546550157243E-002   2.4461238371630001E-002   0.0000000000000000     
   3.4232493515114211E-002   2.8235715239161661E-002   0.0000000000000000     
   3.7596733943004189E-002   3.2240950634023650E-002   0.0000000000000000     
   4.0895267833827201E-002   3.6476944556215966E-002   0.0000000000000000     
   4.4128095187583226E-002   4.0943697005738598E-002   0.0000000000000000     
   2.7635006900899779E-002   2.3497881886463547E-002   0.0000000000000000     
   3.0807588381932993E-002   2.7289939557488572E-002   0.0000000000000000     
   3.3906099171098367E-002   3.1313663323419200E-002   0.0000000000000000     
   3.6930539268395894E-002   3.5569053184255441E-002   0.0000000000000000     
   3.9880908673825578E-002   4.0056109139997284E-002   0.0000000000000000     
   2.4663538791994764E-002   2.2613096177200462E-002   0.0000000000000000     
   2.7567797312995190E-002   2.6440290805054015E-002   0.0000000000000000     
   3.0389772431981932E-002   3.0493601860435145E-002   0.0000000000000000     
   3.3129464148954992E-002   3.4773029343343850E-002   0.0000000000000000     
   3.5786872463914363E-002   3.9278573253780126E-002   0.0000000000000000     
   5.3081919126637789E-002   4.3049028675793730E-002   0.0000000000000000     
   5.6797557052290004E-002   4.7726852519146129E-002   0.0000000000000000     
   6.0460527074793158E-002   5.2709354796863728E-002   0.0000000000000000     
   6.4070829194147250E-002   5.7996535508946540E-002   0.0000000000000000     
   6.7628463410352280E-002   6.3588394655394537E-002   0.0000000000000000     
   4.8528432005187291E-002   4.1941336851004082E-002   0.0000000000000000     
   5.1986390999897034E-002   4.6647080646486247E-002   0.0000000000000000     
   5.5407894601760495E-002   5.1651651524573697E-002   0.0000000000000000     
   5.8792942810777696E-002   5.6955049485266446E-002   0.0000000000000000     
   6.2141535626948637E-002   6.2557274528564480E-002   0.0000000000000000     
   4.4128095187583226E-002   4.0943697005738598E-002   0.0000000000000000     
   4.7311719483747933E-002   4.5670405870451548E-002   0.0000000000000000     
   5.0462644201796983E-002   5.0686269038214792E-002   0.0000000000000000     
   5.3580869341730369E-002   5.5991286509028328E-002   0.0000000000000000     
   5.6666394903548092E-002   6.1585458282892164E-002   0.0000000000000000     
   3.9880908673825578E-002   4.0056109139997284E-002   0.0000000000000000     
   4.2773542503842715E-002   4.4796828191042033E-002   0.0000000000000000     
   4.5624775874902615E-002   4.9813207337787005E-002   0.0000000000000000     
   4.8434608787005250E-002   5.5105246580232192E-002   0.0000000000000000     
   5.1203041240150640E-002   6.0672945918377609E-002   0.0000000000000000     
   3.5786872463914363E-002   3.9278573253780126E-002   0.0000000000000000     
   3.8371860060181381E-002   4.4026347608257722E-002   0.0000000000000000     
   4.0894289621077377E-002   4.9032466423290358E-002   0.0000000000000000     
   4.3354161146602337E-002   5.4296929698878053E-002   0.0000000000000000     
   4.5751474636756273E-002   5.9819737435020795E-002   0.0000000000000000     
   6.7628463410352280E-002   6.3588394655394537E-002   0.0000000000000000     
   7.1088135615493223E-002   6.9414228684313531E-002   0.0000000000000000     
   7.4404551701655081E-002   7.5403334043809278E-002   0.0000000000000000     
   7.7577711668837868E-002   8.1555710733881778E-002   0.0000000000000000     
   8.0607615517041542E-002   8.7871358754531059E-002   0.0000000000000000     
   6.2141535626948637E-002   6.2557274528564480E-002   0.0000000000000000     
   6.5435189241252398E-002   6.8400109292655303E-002   0.0000000000000000     
   6.8655419844668067E-002   7.4425336415726434E-002   0.0000000000000000     
   7.1802227437195623E-002   8.0632955897777830E-002   0.0000000000000000     
   7.4875612018835094E-002   8.7022967738809548E-002   0.0000000000000000     
   5.6666394903548092E-002   6.1585458282892164E-002   0.0000000000000000     
   5.9722555066393256E-002   6.7423250718412583E-002   0.0000000000000000     
   6.2752684009408949E-002   7.3459130174195877E-002   0.0000000000000000     
   6.5756781732595193E-002   7.9693096650242073E-002   0.0000000000000000     
   6.8734848235951954E-002   8.6125150146551130E-002   0.0000000000000000     
   5.1203041240150640E-002   6.0672945918377609E-002   0.0000000000000000     
   5.3950233090915817E-002   6.6483652961585371E-002   0.0000000000000000     
   5.6696344195877775E-002   7.2504715319217677E-002   0.0000000000000000     
   5.9441374555036557E-002   7.8736132991274466E-002   0.0000000000000000     
   6.2185324168392141E-002   8.5177905977755777E-002   0.0000000000000000     
   4.5751474636756273E-002   5.9819737435020795E-002   0.0000000000000000     
   4.8118223314820047E-002   6.5581316022173666E-002   0.0000000000000000     
   5.0486400404074538E-002   7.1562091850791751E-002   0.0000000000000000     
   5.2856005904519728E-002   7.7762064920875035E-002   0.0000000000000000     
   5.5227039816155642E-002   8.4181235232423518E-002   0.0000000000000000     
   8.0607615517041542E-002   8.7871358754531059E-002   0.0000000000000000     
   8.3535855714188312E-002   9.4334149453082800E-002   0.0000000000000000     
   8.6404024728200288E-002  0.10092795417686279        0.0000000000000000     
   8.9212122559077511E-002  0.10765277292587097        0.0000000000000000     
   9.1960149206819969E-002  0.11450860570010739        0.0000000000000000     
   7.4875612018835094E-002   8.7022967738809548E-002   0.0000000000000000     
   7.7867830775989147E-002   9.3561036991128776E-002   0.0000000000000000     
   8.0771140895060517E-002  0.10021282870704275        0.0000000000000000     
   8.3585542376049135E-002  0.10697834288655146        0.0000000000000000     
   8.6311035218955084E-002  0.11385757952965495        0.0000000000000000     
   6.8734848235951954E-002   8.6125150146551130E-002   0.0000000000000000     
   7.1646399713770556E-002   9.2710988019350224E-002   0.0000000000000000     
   7.4450952360342271E-002   9.9406307624866491E-002   0.0000000000000000     
   7.7148506175667125E-002  0.10621110896309996        0.0000000000000000     
   7.9739061159745106E-002  0.11312539203405060        0.0000000000000000     
   6.2185324168392141E-002   8.5177905977755777E-002   0.0000000000000000     
   6.4871562527532484E-002   9.1784002537747128E-002   0.0000000000000000     
   6.7443459124045604E-002   9.8508390930334006E-002   0.0000000000000000     
   6.9901013957931427E-002  0.10535107115551641        0.0000000000000000     
   7.2244227029190020E-002  0.11231204321329434        0.0000000000000000     
   5.5227039816155642E-002   8.4181235232423518E-002   0.0000000000000000     
   5.7543319217274985E-002   9.0780080546319517E-002   0.0000000000000000     
   5.9748661186170456E-002   9.7519078623445291E-002   0.0000000000000000     
   6.1843065722842094E-002  0.10439822946380085        0.0000000000000000     
   6.3826532827289867E-002  0.11141753306738621        0.0000000000000000     
   9.1960149206819969E-002  0.11450860570010739        0.0000000000000000     
   9.4695375872130685E-002  0.12158675799166074        0.0000000000000000     
   9.7465073755712742E-002  0.12897853529261971        0.0000000000000000     
  0.10026924285756611       0.13668393760298439        0.0000000000000000     
  0.10310788317769082       0.14470296492275470        0.0000000000000000     
   8.6311035218955084E-002  0.11385757952965495        0.0000000000000000     
   8.8972176302389697E-002  0.12095330760561711        0.0000000000000000     
   9.1593522504964386E-002  0.12836829608370193        0.0000000000000000     
   9.4175073826679168E-002  0.13610254496390939        0.0000000000000000     
   9.6716830267533999E-002  0.14415605424623956        0.0000000000000000     
   7.9739061159745106E-002  0.11312539203405060        0.0000000000000000     
   8.2228881137665938E-002  0.12024707952404118        0.0000000000000000     
   8.4624229934519332E-002  0.12767409411939451        0.0000000000000000     
   8.6925107550305317E-002  0.13540643582011055        0.0000000000000000     
   8.9131513985023864E-002  0.14344410462618931        0.0000000000000000     
   7.2244227029190020E-002  0.11231204321329434        0.0000000000000000     
   7.4465490377959409E-002  0.11946807374693298        0.0000000000000000     
   7.6557196044377579E-002  0.12689592939969746        0.0000000000000000     
   7.8519344028444571E-002  0.13459561017158780        0.0000000000000000     
   8.0351934330160371E-002  0.14256711606260397        0.0000000000000000     
   6.3826532827289867E-002  0.11141753306738621        0.0000000000000000     
   6.5682004023270096E-002  0.11861629027429249        0.0000000000000000     
   6.7392420834539127E-002  0.12603380192461078        0.0000000000000000     
   6.8957783261096944E-002  0.13367006801834114        0.0000000000000000     
   7.0378091302943563E-002  0.14152508855548351        0.0000000000000000     
  0.10310788317769082       0.14470296492275470        0.0000000000000000     
  0.10561304359789628       0.15283720046367802        0.0000000000000000     
  0.10741677299999189       0.16088822743750167        0.0000000000000000     
  0.10851907138397766       0.16885604584422567        0.0000000000000000     
  0.10891993874985362       0.17674065568385000        0.0000000000000000     
   9.6716830267533999E-002  0.14415605424623956        0.0000000000000000     
   9.9074473886717362E-002  0.15233257505519837        0.0000000000000000     
  0.10110368674341762       0.16043585851529191        0.0000000000000000     
  0.10280446883763480       0.16846590462652014        0.0000000000000000     
  0.10417682016936892       0.17642271338888310        0.0000000000000000     
   8.9131513985023864E-002  0.14344410462618931        0.0000000000000000     
   9.1252291238032912E-002  0.15162515664408205        0.0000000000000000     
   9.3296281308690360E-002  0.15978764798024003        0.0000000000000000     
   9.5263484196996262E-002  0.16793157863466332        0.0000000000000000     
   9.7153899902950563E-002  0.17605694860735183        0.0000000000000000     
   8.0351934330160371E-002  0.14256711606260397        0.0000000000000000     
   8.2146495651842913E-002  0.15071494523032905        0.0000000000000000     
   8.3994556695810130E-002  0.15894359583234610        0.0000000000000000     
   8.5896117462061980E-002  0.16725306786865513        0.0000000000000000     
   8.7851177950598519E-002  0.17564336133925615        0.0000000000000000     
   7.0378091302943563E-002  0.14152508855548351        0.0000000000000000     
   7.1757087128147393E-002  0.14960194081393938        0.0000000000000000     
   7.3198512904776872E-002  0.15790370207161009        0.0000000000000000     
   7.4702368632832014E-002  0.16643037232849564        0.0000000000000000     
   7.6268654312312806E-002  0.17518195158459610        0.0000000000000000     
   0.0000000000000000        0.0000000000000000        0.0000000000000000     
   2.8878699431401705E-003   1.7168992465394399E-003   0.0000000000000000     
   5.8869336315987408E-003   3.8094467907545939E-003   0.0000000000000000     
   8.9971910653757134E-003   6.2776426326454629E-003   0.0000000000000000     
   1.2218642244471084E-002   9.1214867722120441E-003   0.0000000000000000     
   0.0000000000000000        0.0000000000000000        0.0000000000000000     
   2.6120057459552036E-003   1.5625376464784705E-003   0.0000000000000000     
   5.2903183410430692E-003   3.5054437141172796E-003   0.0000000000000000     
   8.0349377852635996E-003   5.8287182029164268E-003   0.0000000000000000     
   1.0845864078616792E-002   8.5323611128759139E-003   0.0000000000000000     
   0.0000000000000000        0.0000000000000000        0.0000000000000000     
   2.3364759354942014E-003   1.4362820073554256E-003   0.0000000000000000     
   4.7088715065008967E-003   3.2565729893987167E-003   0.0000000000000000     
   7.1171867130200841E-003   5.4608729461298718E-003   0.0000000000000000     
   9.5614215550517655E-003   8.0491818775488919E-003   0.0000000000000000     
   0.0000000000000000        0.0000000000000000        0.0000000000000000     
   2.0612805117571640E-003   1.3381323291703055E-003   0.0000000000000000     
   4.1425931279722187E-003   3.0628346165989043E-003   0.0000000000000000     
   6.2439378486451660E-003   5.1741068622857969E-003   0.0000000000000000     
   8.3653146737760059E-003   7.6719490662309825E-003   0.0000000000000000     
   0.0000000000000000        0.0000000000000000        0.0000000000000000     
   1.7864194747440917E-003   1.2680886119231104E-003   0.0000000000000000     
   3.5914832054570406E-003   2.9242285957178449E-003   0.0000000000000000     
   5.4151911921388454E-003   4.9684199513842023E-003   0.0000000000000000     
   7.2575434347895082E-003   7.4006626789221838E-003   0.0000000000000000     
   1.2218642244471084E-002   9.1214867722120441E-003   0.0000000000000000     
   1.5454234317507242E-002   1.2238463576327151E-002   0.0000000000000000     
   1.8606914433106577E-002   1.5526057411863588E-002   0.0000000000000000     
   2.1676682591269082E-002   1.8984268278821360E-002   0.0000000000000000     
   2.4663538791994764E-002   2.2613096177200462E-002   0.0000000000000000     
   1.0845864078616792E-002   8.5323611128759139E-003   0.0000000000000000     
   1.3668715809724711E-002   1.1533634338131125E-002   0.0000000000000000     
   1.6449111567209421E-002   1.4749799772817452E-002   0.0000000000000000     
   1.9187051351070919E-002   1.8180857416934898E-002   0.0000000000000000     
   2.1882535161309211E-002   2.1826807270483445E-002   0.0000000000000000     
   9.5614215550517655E-003   8.0491818775488919E-003   0.0000000000000000     
   1.2015878011871359E-002   1.0953776898834004E-002   0.0000000000000000     
   1.4454858062754284E-002   1.4106935125163427E-002   0.0000000000000000     
   1.6878361707700535E-002   1.7508656556537164E-002   0.0000000000000000     
   1.9286388946710122E-002   2.1158941192955215E-002   0.0000000000000000     
   8.3653146737760059E-003   7.6719490662309825E-003   0.0000000000000000     
   1.0495720923947186E-002   1.0498891258435779E-002   0.0000000000000000     
   1.2624153919741161E-002   1.3597463468901510E-002   0.0000000000000000     
   1.4750613661157928E-002   1.6967665697628177E-002   0.0000000000000000     
   1.6875100148197490E-002   2.0609497944615765E-002   0.0000000000000000     
   7.2575434347895082E-003   7.4006626789221838E-003   0.0000000000000000     
   9.1082445459521894E-003   1.0168977416936462E-002   0.0000000000000000     
   1.0956999138170052E-002   1.3221384804031705E-002   0.0000000000000000     
   1.2803807211443096E-002   1.6557884840207919E-002   0.0000000000000000     
   1.4648668765771325E-002   2.0178477525465095E-002   0.0000000000000000     
   2.4663538791994764E-002   2.2613096177200462E-002   0.0000000000000000     
   2.7567797312995190E-002   2.6440290805054015E-002   0.0000000000000000     