 <VTKFile type="UnstructuredGrid"  version="0.1"   >
 <UnstructuredGrid>
 <Piece  NumberOfPoints="          1600 "  NumberOfCells="         1024 ">
 <Points>
 <DataArray  type="Float64" NumberOfComponents="3"  format="ascii" >
   0.0000000000000000        0.0000000000000000        0.0000000000000000     
   3.1250000000000000E-002   0.0000000000000000        0.0000000000000000     
   6.2500000000000000E-002   0.0000000000000000        0.0000000000000000     
   9.3750000000000000E-002   0.0000000000000000        0.0000000000000000     
  0.12500000000000000        0.0000000000000000        0.0000000000000000     
   0.0000000000000000        3.1250000000000000E-002   0.0000000000000000     
   3.1250000000000000E-002   3.1250000000000000E-002   0.0000000000000000     
   6.2500000000000000E-002   3.1250000000000000E-002   0.0000000000000000     
   9.3750000000000000E-002   3.1250000000000000E-002   0.0000000000000000     
  0.12500000000000000        3.1250000000000000E-002   0.0000000000000000     
   0.0000000000000000        6.2500000000000000E-002   0.0000000000000000     
   3.1250000000000000E-002   6.2500000000000000E-002   0.0000000000000000     
   6.2500000000000000E-002   6.2500000000000000E-002   0.0000000000000000     
   9.3750000000000000E-002   6.2500000000000000E-002   0.0000000000000000     
  0.12500000000000000        6.2500000000000000E-002   0.0000000000000000     
   0.0000000000000000        9.3750000000000000E-002   0.0000000000000000     
   3.1250000000000000E-002   9.3750000000000000E-002   0.0000000000000000     
   6.2500000000000000E-002   9.3750000000000000E-002   0.0000000000000000     
   9.3750000000000000E-002   9.3750000000000000E-002   0.0000000000000000     
  0.12500000000000000        9.3750000000000000E-002   0.0000000000000000     
   0.0000000000000000       0.12500000000000000        0.0000000000000000     
   3.1250000000000000E-002  0.12500000000000000        0.0000000000000000     
   6.2500000000000000E-002  0.12500000000000000        0.0000000000000000     
   9.3750000000000000E-002  0.12500000000000000        0.0000000000000000     
  0.12500000000000000       0.12500000000000000        0.0000000000000000     
  0.12500000000000000        0.0000000000000000        0.0000000000000000     
  0.15625000000000000        0.0000000000000000        0.0000000000000000     
  0.18750000000000000        0.0000000000000000        0.0000000000000000     
  0.21875000000000000        0.0000000000000000        0.0000000000000000     
  0.25000000000000000        0.0000000000000000        0.0000000000000000     
  0.12500000000000000        3.1250000000000000E-002   0.0000000000000000     
  0.15625000000000000        3.1250000000000000E-002   0.0000000000000000     
  0.18750000000000000        3.1250000000000000E-002   0.0000000000000000     
  0.21875000000000000        3.1250000000000000E-002   0.0000000000000000     
  0.25000000000000000        3.1250000000000000E-002   0.0000000000000000     
  0.12500000000000000        6.2500000000000000E-002   0.0000000000000000     
  0.15625000000000000        6.2500000000000000E-002   0.0000000000000000     
  0.18750000000000000        6.2500000000000000E-002   0.0000000000000000     
  0.21875000000000000        6.2500000000000000E-002   0.0000000000000000     
  0.25000000000000000        6.2500000000000000E-002   0.0000000000000000     
  0.12500000000000000        9.3750000000000000E-002   0.0000000000000000     
  0.15625000000000000        9.3750000000000000E-002   0.0000000000000000     
  0.18750000000000000        9.3750000000000000E-002   0.0000000000000000     
  0.21875000000000000        9.3750000000000000E-002   0.0000000000000000     
  0.25000000000000000        9.3750000000000000E-002   0.0000000000000000     
  0.12500000000000000       0.12500000000000000        0.0000000000000000     
  0.15625000000000000       0.12500000000000000        0.0000000000000000     
  0.18750000000000000       0.12500000000000000        0.0000000000000000     
  0.21875000000000000       0.12500000000000000        0.0000000000000000     
  0.25000000000000000       0.12500000000000000        0.0000000000000000     
  0.25000000000000000        0.0000000000000000        0.0000000000000000     
  0.28125000000000000        0.0000000000000000        0.0000000000000000     
  0.31250000000000000        0.0000000000000000        0.0000000000000000     
  0.34375000000000000        0.0000000000000000        0.0000000000000000     
  0.37500000000000000        0.0000000000000000        0.0000000000000000     
  0.25000000000000000        3.1250000000000000E-002   0.0000000000000000     
  0.28125000000000000        3.1250000000000000E-002   0.0000000000000000     
  0.31250000000000000        3.1250000000000000E-002   0.0000000000000000     
  0.34375000000000000        3.1250000000000000E-002   0.0000000000000000     
  0.37500000000000000        3.1250000000000000E-002   0.0000000000000000     
  0.25000000000000000        6.2500000000000000E-002   0.0000000000000000     
  0.28125000000000000        6.2500000000000000E-002   0.0000000000000000     
  0.31250000000000000        6.2500000000000000E-002   0.0000000000000000     
  0.34375000000000000        6.2500000000000000E-002   0.0000000000000000     
  0.37500000000000000        6.2500000000000000E-002   0.0000000000000000     
  0.25000000000000000        9.3750000000000000E-002   0.0000000000000000     
  0.28125000000000000        9.3750000000000000E-002   0.0000000000000000     
  0.31250000000000000        9.3750000000000000E-002   0.0000000000000000     
  0.34375000000000000        9.3750000000000000E-002   0.0000000000000000     
  0.37500000000000000        9.3750000000000000E-002   0.0000000000000000     
  0.25000000000000000       0.12500000000000000        0.0000000000000000     
  0.28125000000000000       0.12500000000000000        0.0000000000000000     
  0.31250000000000000       0.12500000000000000        0.0000000000000000     
  0.34375000000000000       0.12500000000000000        0.0000000000000000     
  0.37500000000000000       0.12500000000000000        0.0000000000000000     
  0.37500000000000000        0.0000000000000000        0.0000000000000000     
  0.40625000000000000        0.0000000000000000        0.0000000000000000     
  0.43750000000000000        0.0000000000000000        0.0000000000000000     
  0.46875000000000000        0.0000000000000000        0.0000000000000000     
  0.50000000000000000        0.0000000000000000        0.0000000000000000     
  0.37500000000000000        3.1250000000000000E-002   0.0000000000000000     
  0.40625000000000000        3.1250000000000000E-002   0.0000000000000000     
  0.43750000000000000        3.1250000000000000E-002   0.0000000000000000     
  0.46875000000000000        3.1250000000000000E-002   0.0000000000000000     
  0.50000000000000000        3.1250000000000000E-002   0.0000000000000000     
  0.37500000000000000        6.2500000000000000E-002   0.0000000000000000     
  0.40625000000000000        6.2500000000000000E-002   0.0000000000000000     
  0.43750000000000000        6.2500000000000000E-002   0.0000000000000000     
  0.46875000000000000        6.2500000000000000E-002   0.0000000000000000     
  0.50000000000000000        6.2500000000000000E-002   0.0000000000000000     
  0.37500000000000000        9.3750000000000000E-002   0.0000000000000000     
  0.40625000000000000        9.3750000000000000E-002   0.0000000000000000     
  0.43750000000000000        9.3750000000000000E-002   0.0000000000000000     
  0.46875000000000000        9.3750000000000000E-002   0.0000000000000000     
  0.50000000000000000        9.3750000000000000E-002   0.0000000000000000     
  0.37500000000000000       0.12500000000000000        0.0000000000000000     
  0.40625000000000000       0.12500000000000000        0.0000000000000000     
  0.43750000000000000       0.12500000000000000        0.0000000000000000     
  0.46875000000000000       0.12500000000000000        0.0000000000000000     
  0.50000000000000000       0.12500000000000000        0.0000000000000000     
  0.50000000000000000        0.0000000000000000        0.0000000000000000     
  0.53125000000000000        0.0000000000000000        0.0000000000000000     
  0.56250000000000000        0.0000000000000000        0.0000000000000000     
  0.59375000000000000        0.0000000000000000        0.0000000000000000     
  0.62500000000000000        0.0000000000000000        0.0000000000000000     
  0.50000000000000000        3.1250000000000000E-002   0.0000000000000000     
  0.53125000000000000        3.1250000000000000E-002   0.0000000000000000     
  0.56250000000000000        3.1250000000000000E-002   0.0000000000000000     
  0.59375000000000000        3.1250000000000000E-002   0.0000000000000000     
  0.62500000000000000        3.1250000000000000E-002   0.0000000000000000     
  0.50000000000000000        6.2500000000000000E-002   0.0000000000000000     
  0.53125000000000000        6.2500000000000000E-002   0.0000000000000000     
  0.56250000000000000        6.2500000000000000E-002   0.0000000000000000     
  0.59375000000000000        6.2500000000000000E-002   0.0000000000000000     
  0.62500000000000000        6.2500000000000000E-002   0.0000000000000000     
  0.50000000000000000        9.3750000000000000E-002   0.0000000000000000     
  0.53125000000000000        9.3750000000000000E-002   0.0000000000000000     
  0.56250000000000000        9.3750000000000000E-002   0.0000000000000000     
  0.59375000000000000        9.3750000000000000E-002   0.0000000000000000     
  0.62500000000000000        9.3750000000000000E-002   0.0000000000000000     
  0.50000000000000000       0.12500000000000000        0.0000000000000000     
  0.53125000000000000       0.12500000000000000        0.0000000000000000     
  0.56250000000000000       0.12500000000000000        0.0000000000000000     
[...]
 <PointData>
 <DataArray  type="Float64" Name="disp" NumberOfComponents="3" format="ascii">
   0.0000000000000000        0.0000000000000000        0.0000000000000000     
   6.0959864500883133E-003   3.7905950752372430E-003   0.0000000000000000     
   1.1665980928529027E-002   7.3241109802523584E-003   0.0000000000000000     
   1.6709983435322141E-002   1.0600547715045344E-002   0.0000000000000000     
   2.1227993970467655E-002   1.3619905279616203E-002   0.0000000000000000     
   0.0000000000000000        0.0000000000000000        0.0000000000000000     
   4.8911330047322309E-003   3.0223042932811467E-003   0.0000000000000000     
   9.5735614006181528E-003   6.0608075967762548E-003   0.0000000000000000     
   1.4047285187657762E-002   9.1155099104853251E-003   0.0000000000000000     
   1.8312304365851066E-002   1.2186411234408357E-002   0.0000000000000000     
   0.0000000000000000        0.0000000000000000        0.0000000000000000     
   3.9535289550454659E-003   2.4252665775165057E-003   0.0000000000000000     
   7.9105323309643111E-003   5.0631617042368789E-003   0.0000000000000000     
   1.1871010127756536E-002   7.9136853801611215E-003   0.0000000000000000     
   1.5834962345422140E-002   1.0976837605289232E-002   0.0000000000000000     
   0.0000000000000000        0.0000000000000000        0.0000000000000000     
   3.2831743010280179E-003   1.9994819279433185E-003   0.0000000000000000     
   6.6768937195675043E-003   4.3311733026342308E-003   0.0000000000000000     
   1.0181158255618460E-002   6.9950741240727352E-003   0.0000000000000000     
   1.3795967909180888E-002   9.9911843922588315E-003   0.0000000000000000     
   0.0000000000000000        0.0000000000000000        0.0000000000000000     
   2.8800690426798864E-003   1.7449503445615860E-003   0.0000000000000000     
   5.8726455664277312E-003   3.8648423919683079E-003   0.0000000000000000     
   8.9777295712435354E-003   6.3596761422201661E-003   0.0000000000000000     
   1.2195321057127296E-002   9.2294515953171598E-003   0.0000000000000000     
   2.1227993970467655E-002   1.3619905279616203E-002   0.0000000000000000     
   2.5432929754404428E-002   1.6612886433148774E-002   0.0000000000000000     
   2.9537708007571321E-002   1.9810193934826886E-002   0.0000000000000000     
   3.3542328729968339E-002   2.3211827784650550E-002   0.0000000000000000     
   3.7446791921595474E-002   2.6817787982619759E-002   0.0000000000000000     
   1.8312304365851066E-002   1.2186411234408357E-002   0.0000000000000000     
   2.2406832415783118E-002   1.5341941511877242E-002   0.0000000000000000     
   2.6369082818038982E-002   1.8650530686223871E-002   0.0000000000000000     
   3.0199055572618660E-002   2.2112178757448253E-002   0.0000000000000000     
   3.3896750679522157E-002   2.5726885725550375E-002   0.0000000000000000     
   1.5834962345422140E-002   1.0976837605289232E-002   0.0000000000000000     
   1.9730595151129751E-002   1.4211496800361149E-002   0.0000000000000000     
   2.3486114712047996E-002   1.7576541386116799E-002   0.0000000000000000     
   2.7101521028176871E-002   2.1071971362556185E-002   0.0000000000000000     
   3.0576814099516372E-002   2.4697786729679316E-002   0.0000000000000000     
   1.3795967909180888E-002   9.9911843922588315E-003   0.0000000000000000     
   1.7404217960444331E-002   1.3221552298600487E-002   0.0000000000000000     
   2.0888803689598359E-002   1.6588226034505667E-002   0.0000000000000000     
   2.4249725096642954E-002   2.0091205599974370E-002   0.0000000000000000     
   2.7486982181578135E-002   2.3730490995006587E-002   0.0000000000000000     
   1.2195321057127296E-002   9.2294515953171598E-003   0.0000000000000000     
   1.5427700843726860E-002   1.2372108006595269E-002   0.0000000000000000     
   1.8577149750690070E-002   1.5685584631390481E-002   0.0000000000000000     
   2.1643667778016931E-002   1.9169881469702787E-002   0.0000000000000000     
   2.4627254925707432E-002   2.2824998521532188E-002   0.0000000000000000     
   3.7446791921595474E-002   2.6817787982619759E-002   0.0000000000000000     
   4.1255099220138272E-002   3.0623131149667068E-002   0.0000000000000000     
   4.4971252263282274E-002   3.4622913906725034E-002   0.0000000000000000     
   4.8595251051027459E-002   3.8817136253793641E-002   0.0000000000000000     
   5.2127095583373848E-002   4.3205798190872904E-002   0.0000000000000000     
   3.3896750679522157E-002   2.5726885725550375E-002   0.0000000000000000     
   3.7485155649709050E-002   2.9523286533797530E-002   0.0000000000000000     
   4.0987257994138951E-002   3.3530016125457016E-002   0.0000000000000000     
   4.4403057712811833E-002   3.7747074500528818E-002   0.0000000000000000     
   4.7732554805727717E-002   4.2174461659012952E-002   0.0000000000000000     
   3.0576814099516372E-002   2.4697786729679316E-002   0.0000000000000000     
   3.3941353467916796E-002   2.8498417975193497E-002   0.0000000000000000     
   3.7224498675228423E-002   3.2518295586806044E-002   0.0000000000000000     
   4.0426249721451243E-002   3.6757419564516974E-002   0.0000000000000000     
   4.3546606606585284E-002   4.1215789908326264E-002   0.0000000000000000     
   2.7486982181578135E-002   2.3730490995006587E-002   0.0000000000000000     
   3.0623692674761508E-002   2.7548525473854966E-002   0.0000000000000000     
   3.3682974306550706E-002   3.1587752290772139E-002   0.0000000000000000     
   3.6664827076945718E-002   3.5848171445758088E-002   0.0000000000000000     
   3.9569250985946547E-002   4.0329782938812848E-002   0.0000000000000000     
   2.4627254925707432E-002   2.2824998521532188E-002   0.0000000000000000     
   2.7532173270243182E-002   2.6673609029781938E-002   0.0000000000000000     
   3.0362684888105784E-002   3.0738386237355270E-002   0.0000000000000000     
   3.3118789779295228E-002   3.5019330144252181E-002   0.0000000000000000     
   3.5800487943811514E-002   3.9516440750472684E-002   0.0000000000000000     
   5.2127095583373848E-002   4.3205798190872904E-002   0.0000000000000000     
   5.5565722019091802E-002   4.7793830741398868E-002   0.0000000000000000     
   5.8910066516951715E-002   5.2586164928807549E-002   0.0000000000000000     
   6.2160129076953577E-002   5.7582800753098975E-002   0.0000000000000000     
   6.5315909699097396E-002   6.2783738214273119E-002   0.0000000000000000     
   4.7732554805727717E-002   4.2174461659012952E-002   0.0000000000000000     
   5.0971916232345219E-002   4.6805823549955716E-002   0.0000000000000000     
   5.4117308952122974E-002   5.1634806122403440E-002   0.0000000000000000     
   5.7168732965060969E-002   5.6661409376356088E-002   0.0000000000000000     
   6.0126188271159210E-002   6.1885633311813709E-002   0.0000000000000000     
   4.3546606606585284E-002   4.1215789908326264E-002   0.0000000000000000     
   4.6580934305319663E-002   4.5880900469429275E-002   0.0000000000000000     
   4.9524597792343500E-002   5.0740245099021336E-002   0.0000000000000000     
   5.2377597067656843E-002   5.5793823797102467E-002   0.0000000000000000     
   5.5139932131259659E-002   6.1041636563672633E-002   0.0000000000000000     
   3.9569250985946547E-002   4.0329782938812848E-002   0.0000000000000000     
   4.2392776238015122E-002   4.5019061499819504E-002   0.0000000000000000     
   4.5131933037613342E-002   4.9902481858661252E-002   0.0000000000000000     
   4.7786721384741208E-002   5.4980044015338049E-002   0.0000000000000000     
   5.0357141279398727E-002   6.0251747969849917E-002   0.0000000000000000     
   3.5800487943811514E-002   3.9516440750472684E-002   0.0000000000000000     
   3.8407442030431609E-002   4.4220306641126458E-002   0.0000000000000000     
   4.0939314687932458E-002   4.9121516401323187E-002   0.0000000000000000     
   4.3396105916314071E-002   5.4220070031062891E-002   0.0000000000000000     
   4.5777815715576431E-002   5.9515967530345541E-002   0.0000000000000000     
   6.5315909699097396E-002   6.2783738214273119E-002   0.0000000000000000     
   6.8378673284408692E-002   6.8175369667979949E-002   0.0000000000000000     
   7.1349684733913066E-002   7.3744087469869393E-002   0.0000000000000000     
   7.4228944047610476E-002   7.9489891619941466E-002   0.0000000000000000     
   7.7016451225500937E-002   8.5412782118196182E-002   0.0000000000000000     
   6.0126188271159210E-002   6.1885633311813709E-002   0.0000000000000000     
   6.2993820808090489E-002   6.7298743190822824E-002   0.0000000000000000     
   6.5775776513527590E-002   7.2892004275430036E-002   0.0000000000000000     
   6.8472055387470518E-002   7.8665416565635332E-002   0.0000000000000000     
   7.1082657429919288E-002   8.4618980061438712E-002   0.0000000000000000     
   5.5139932131259659E-002   6.1041636563672633E-002   0.0000000000000000     
   5.7816762948667770E-002   6.6477499572194565E-002   0.0000000000000000     
   6.0413249485397044E-002   7.2095228996130967E-002   0.0000000000000000     
   6.2929391741447474E-002   7.7894824835481824E-002   0.0000000000000000     
   6.5365189716819039E-002   8.3876287090247137E-002   0.0000000000000000     
   5.0357141279398727E-002   6.0251747969849917E-002   0.0000000000000000     
   5.2847499706140583E-002   6.5711638812095172E-002   0.0000000000000000     
   5.5262103649521430E-002   7.1353761631972198E-002   0.0000000000000000     
   5.7600953109541296E-002   7.7178116429480942E-002   0.0000000000000000     
   5.9864048086200161E-002   8.3184703204621471E-002   0.0000000000000000     
   4.5777815715576431E-002   5.9515967530345541E-002   0.0000000000000000     
   4.8086031080508893E-002   6.5001160910524658E-002   0.0000000000000000     
   5.0322339005900732E-002   7.0667602182953718E-002   0.0000000000000000     
   5.2486739491751998E-002   7.6515291347632713E-002   0.0000000000000000     
   5.4579232538062655E-002   8.2544228404561673E-002   0.0000000000000000     
   7.7016451225500937E-002   8.5412782118196182E-002   0.0000000000000000     
   7.9706473181302431E-002   9.1504208188468980E-002   0.0000000000000000     
   8.2293276828732956E-002   9.7755619054595316E-002   0.0000000000000000     
   8.4776862167792497E-002  0.10416701471657522        0.0000000000000000     
   8.7157229198481068E-002  0.11073839517440867        0.0000000000000000     
   7.1082657429919288E-002   8.4618980061438712E-002   0.0000000000000000     
   7.3602040821575135E-002   9.0741714425469536E-002   0.0000000000000000     
   7.6024663743139265E-002   9.7022639320357124E-002   0.0000000000000000     
   7.8350526194611705E-002  0.10346175474610148        0.0000000000000000     
   8.0579628175992471E-002  0.11005906070270262        0.0000000000000000     
   6.5365189716819039E-002   8.3876287090247137E-002   0.0000000000000000     
   6.7715685065088446E-002   9.0027253586073580E-002   0.0000000000000000     
   6.9975919439832363E-002   9.6335362148607773E-002   0.0000000000000000     
   7.2145892841050815E-002  0.10280061277784971        0.0000000000000000     
   7.4225605268743791E-002  0.10942300547379943        0.0000000000000000     
   5.9864048086200161E-002   8.3184703204621471E-002   0.0000000000000000     
   6.2047405911842365E-002   8.9360825670281113E-002   0.0000000000000000     
   6.4147043918812235E-002   9.5693787539347250E-002   0.0000000000000000     
   6.6162962107109799E-002  0.10218358881181994        0.0000000000000000     
   6.8095160476735042E-002  0.10883022948769910        0.0000000000000000     
   5.4579232538062655E-002   8.2544228404561673E-002   0.0000000000000000     
   5.6597203361836892E-002   8.8742430678092121E-002   0.0000000000000000     
   5.8538037180078904E-002   9.5097915492575597E-002   0.0000000000000000     
   6.0401733992788677E-002  0.10161068284801213        0.0000000000000000     
   6.2188293799966196E-002  0.10828073274440167        0.0000000000000000     
   8.7157229198481068E-002  0.11073839517440867        0.0000000000000000     
   8.9444116815793659E-002  0.11745568577425144        0.0000000000000000     
   9.1647263914725247E-002  0.12430481186225938        0.0000000000000000     
   9.3766670495275858E-002  0.13128577343843240        0.0000000000000000     
   9.5802336557445467E-002  0.13839857050277060        0.0000000000000000     
   8.0579628175992471E-002  0.11005906070270262        0.0000000000000000     
   8.2719598896435265E-002  0.11680199755767763        0.0000000000000000     
   8.4778067565093831E-002  0.12367800567854365        0.0000000000000000     
   8.6755034181968185E-002  0.13068708506530069        0.0000000000000000     
   8.8650498747058298E-002  0.13782923571794869        0.0000000000000000     
   7.4225605268743791E-002  0.10942300547379943        0.0000000000000000     
   7.6221273040558007E-002  0.11619088665030582        0.0000000000000000     
   7.8139112474140182E-002  0.12309260272121775        0.0000000000000000     
   7.9979123569490315E-002  0.13012815368653524        0.0000000000000000     
   8.1741306326608393E-002  0.13729753954625831        0.0000000000000000     
   6.8095160476735042E-002  0.10883022948769910        0.0000000000000000     
   6.9949139248161887E-002  0.11562235305213596        0.0000000000000000     
   7.1730398641864285E-002  0.12254860299028167        0.0000000000000000     
   7.3438938657842234E-002  0.12960897930213625        0.0000000000000000     
   7.5074759296095722E-002  0.13680348198769954        0.0000000000000000     
   6.2188293799966196E-002  0.10828073274440167        0.0000000000000000     
   6.3903197519246890E-002  0.11509639676316813        0.0000000000000000     
   6.5551926068266125E-002  0.12204600648573541        0.0000000000000000     
   6.7134479447023943E-002  0.12912956191210348        0.0000000000000000     
   6.8650857655520314E-002  0.13634706304227237        0.0000000000000000     
   9.5802336557445467E-002  0.13839857050277060        0.0000000000000000     
   9.7745683891623331E-002  0.14563308968846267        0.0000000000000000     
   9.9588134288198696E-002  0.15297921762869737        0.0000000000000000     
  0.10132968774717158       0.16043695432347466        0.0000000000000000     
  0.10297034426854192       0.16800629977279463        0.0000000000000000     
   8.8650498747058298E-002  0.13782923571794869        0.0000000000000000     
   9.0452263899119409E-002  0.14509272370229603        0.0000000000000000     
   9.2148132276906727E-002  0.15246581508415111        0.0000000000000000     
   9.3738103880420254E-002  0.15994850986351386        0.0000000000000000     
   9.5222178709659946E-002  0.16754080804038435        0.0000000000000000     
   8.1741306326608393E-002  0.13729753954625831        0.0000000000000000     
   8.3412103239611207E-002  0.14458807611343835        0.0000000000000000     
   8.4977956802615551E-002  0.15198707920112675        0.0000000000000000     
   8.6438867015621410E-002  0.15949454880932351        0.0000000000000000     
   8.7794833878628797E-002  0.16711048493802866        0.0000000000000000     
   7.5074759296095722E-002  0.13680348198769954        0.0000000000000000     
   7.6625201913098726E-002  0.14411914692188962        0.0000000000000000     
   7.8077607865325180E-002  0.15154300997962436        0.0000000000000000     
   7.9431977152775113E-002  0.15907507116090369        0.0000000000000000     
   8.0688309775448483E-002  0.16671533046572759        0.0000000000000000     
   6.8650857655520314E-002  0.13634706304227237        0.0000000000000000     
   7.0091559919581964E-002  0.14368593612764990        0.0000000000000000     
   7.1447085465035629E-002  0.15113360741964388        0.0000000000000000     
   7.2717434291881294E-002  0.15869007691825432        0.0000000000000000     
   7.3902606400118989E-002  0.16635534462348114        0.0000000000000000     
   0.0000000000000000        0.0000000000000000        0.0000000000000000     
   2.8800690426798864E-003   1.7449503445615860E-003   0.0000000000000000     
   5.8726455664277312E-003   3.8648423919683079E-003   0.0000000000000000     
   8.9777295712435354E-003   6.3596761422201661E-003   0.0000000000000000     
   1.2195321057127296E-002   9.2294515953171598E-003   0.0000000000000000     
   0.0000000000000000        0.0000000000000000        0.0000000000000000     
   2.6103528575679158E-003   1.5890154539168891E-003   0.0000000000000000     
   5.2897811256076652E-003   3.5568620736233588E-003   0.0000000000000000     
   8.0382848041192466E-003   5.9035398591194086E-003   0.0000000000000000     
   1.0855863893102660E-002   8.6290488104050385E-003   0.0000000000000000     
   0.0000000000000000        0.0000000000000000        0.0000000000000000     
   2.3401654232589495E-003   1.4590208825548093E-003   0.0000000000000000     
   4.7202936511699760E-003   3.2999254489836298E-003   0.0000000000000000     
   7.1403846837330793E-003   5.5227136992864597E-003   0.0000000000000000     
   9.6004385209482596E-003   8.1273856334633018E-003   0.0000000000000000     
   0.0000000000000000        0.0000000000000000        0.0000000000000000     
   2.0695067397529872E-003   1.3549666304753462E-003   0.0000000000000000     
   4.1641831431146669E-003   3.0940325180491193E-003   0.0000000000000000     
   6.2840292100850379E-003   5.2171976627213186E-003   0.0000000000000000     
   8.4290449406641023E-003   7.7244620644919453E-003   0.0000000000000000     
   0.0000000000000000        0.0000000000000000        0.0000000000000000     
   1.7983768070500296E-003   1.2768526976785005E-003   0.0000000000000000     
   3.6214496014417359E-003   2.9391832808198298E-003   0.0000000000000000     
   5.4692183831751180E-003   4.9869917494239869E-003   0.0000000000000000     
   7.3416831522501768E-003   7.4202781034909734E-003   0.0000000000000000     
   1.2195321057127296E-002   9.2294515953171598E-003   0.0000000000000000     
   1.5427700843726860E-002   1.2372108006595269E-002   0.0000000000000000     
   1.8577149750690070E-002   1.5685584631390481E-002   0.0000000000000000     
   2.1643667778016931E-002   1.9169881469702787E-002   0.0000000000000000     
   2.4627254925707432E-002   2.2824998521532188E-002   0.0000000000000000     
   1.0855863893102660E-002   8.6290488104050385E-003   0.0000000000000000     
   1.3689229005292259E-002   1.1651118775901460E-002   0.0000000000000000     
   1.6485090753422402E-002   1.4887479604029880E-002   0.0000000000000000     
   1.9243449137493086E-002   1.8338131294790300E-002   0.0000000000000000     
   2.1964304157504312E-002   2.2003073848182723E-002   0.0000000000000000     
   9.6004385209482596E-003   8.1273856334633018E-003   0.0000000000000000     
   1.2076987649455459E-002   1.1046539458075027E-002   0.0000000000000000     
   1.4546564555894613E-002   1.4212773379682518E-002   0.0000000000000000     
   1.7009169240265722E-002   1.7626087398285768E-002   0.0000000000000000     
   1.9464801702568785E-002   2.1286481513884781E-002   0.0000000000000000     
   8.4290449406641023E-003   7.7244620644919453E-003   0.0000000000000000     
   1.0590976776216456E-002   1.0558370053115976E-002   0.0000000000000000     
   1.2761571158106702E-002   1.3661465958348388E-002   0.0000000000000000     
   1.4940828086334840E-002   1.7033749780189185E-002   0.0000000000000000     
   1.7128747560900874E-002   2.0675221518638362E-002   0.0000000000000000     
   7.3416831522501768E-003   7.4202781034909734E-003   0.0000000000000000     
   9.2311963855752476E-003   1.0186610561024306E-002   0.0000000000000000     
   1.1130110560058670E-002   1.3233557340027499E-002   0.0000000000000000     
   1.3038425675700443E-002   1.6561118440500559E-002   0.0000000000000000     
   1.4956141732500563E-002   2.0169293862443472E-002   0.0000000000000000     
   2.4627254925707432E-002   2.2824998521532188E-002   0.0000000000000000     
   2.7532173270243182E-002   2.6673609029781938E-002   0.0000000000000000     