 <VTKFile type="UnstructuredGrid"  version="0.1"   >
 <UnstructuredGrid>
 <Piece  NumberOfPoints="          6400 "  NumberOfCells="         4096 ">
 <Points>
 <DataArray  type="Float64" NumberOfComponents="3"  format="ascii" >
   0.0000000000000000        0.0000000000000000        0.0000000000000000     
   1.5625000000000000E-002   0.0000000000000000        0.0000000000000000     
   3.1250000000000000E-002   0.0000000000000000        0.0000000000000000     
   4.6875000000000000E-002   0.0000000000000000        0.0000000000000000     
   6.2500000000000000E-002   0.0000000000000000        0.0000000000000000     
   0.0000000000000000        1.5625000000000000E-002   0.0000000000000000     
   1.5625000000000000E-002   1.5625000000000000E-002   0.0000000000000000     
   3.1250000000000000E-002   1.5625000000000000E-002   0.0000000000000000     
   4.6875000000000000E-002   1.5625000000000000E-002   0.0000000000000000     
   6.2500000000000000E-002   1.5625000000000000E-002   0.0000000000000000     
   0.0000000000000000        3.1250000000000000E-002   0.0000000000000000     
   1.5625000000000000E-002   3.1250000000000000E-002   0.0000000000000000     
   3.1250000000000000E-002   3.1250000000000000E-002   0.0000000000000000     
   4.6875000000000000E-002   3.1250000000000000E-002   0.0000000000000000     
   6.2500000000000000E-002   3.1250000000000000E-002   0.0000000000000000     
   0.0000000000000000        4.6875000000000000E-002   0.0000000000000000     
   1.5625000000000000E-002   4.6875000000000000E-002   0.0000000000000000     
   3.1250000000000000E-002   4.6875000000000000E-002   0.0000000000000000     
   4.6875000000000000E-002   4.6875000000000000E-002   0.0000000000000000     
   6.2500000000000000E-002   4.6875000000000000E-002   0.0000000000000000     
   0.0000000000000000        6.2500000000000000E-002   0.0000000000000000     
   1.5625000000000000E-002   6.2500000000000000E-002   0.0000000000000000     
   3.1250000000000000E-002   6.2500000000000000E-002   0.0000000000000000     
   4.6875000000000000E-002   6.2500000000000000E-002   0.0000000000000000     
   6.2500000000000000E-002   6.2500000000000000E-002   0.0000000000000000     
   6.2500000000000000E-002   0.0000000000000000        0.0000000000000000     
   7.8125000000000000E-002   0.0000000000000000        0.0000000000000000     
   9.3750000000000000E-002   0.0000000000000000        0.0000000000000000     
  0.10937500000000000        0.0000000000000000        0.0000000000000000     
  0.12500000000000000        0.0000000000000000        0.0000000000000000     
   6.2500000000000000E-002   1.5625000000000000E-002   0.0000000000000000     
   7.8125000000000000E-002   1.5625000000000000E-002   0.0000000000000000     
   9.3750000000000000E-002   1.5625000000000000E-002   0.0000000000000000     
  0.10937500000000000        1.5625000000000000E-002   0.0000000000000000     
  0.12500000000000000        1.5625000000000000E-002   0.0000000000000000     
   6.2500000000000000E-002   3.1250000000000000E-002   0.0000000000000000     
   7.8125000000000000E-002   3.1250000000000000E-002   0.0000000000000000     
   9.3750000000000000E-002   3.1250000000000000E-002   0.0000000000000000     
  0.10937500000000000        3.1250000000000000E-002   0.0000000000000000     
  0.12500000000000000        3.1250000000000000E-002   0.0000000000000000     
   6.2500000000000000E-002   4.6875000000000000E-002   0.0000000000000000     
   7.8125000000000000E-002   4.6875000000000000E-002   0.0000000000000000     
   9.3750000000000000E-002   4.6875000000000000E-002   0.0000000000000000     
  0.10937500000000000        4.6875000000000000E-002   0.0000000000000000     
  0.12500000000000000        4.6875000000000000E-002   0.0000000000000000     
   6.2500000000000000E-002   6.2500000000000000E-002   0.0000000000000000     
   7.8125000000000000E-002   6.2500000000000000E-002   0.0000000000000000     
   9.3750000000000000E-002   6.2500000000000000E-002   0.0000000000000000     
  0.10937500000000000        6.2500000000000000E-002   0.0000000000000000     
  0.12500000000000000        6.2500000000000000E-002   0.0000000000000000     
  0.12500000000000000        0.0000000000000000        0.0000000000000000     
  0.14062500000000000        0.0000000000000000        0.0000000000000000     
  0.15625000000000000        0.0000000000000000        0.0000000000000000     
  0.17187500000000000        0.0000000000000000        0.0000000000000000     
  0.18750000000000000        0.0000000000000000        0.0000000000000000     
  0.12500000000000000        1.5625000000000000E-002   0.0000000000000000     
  0.14062500000000000        1.5625000000000000E-002   0.0000000000000000     
  0.15625000000000000        1.5625000000000000E-002   0.0000000000000000     
  0.17187500000000000        1.5625000000000000E-002   0.0000000000000000     
  0.18750000000000000        1.5625000000000000E-002   0.0000000000000000     
  0.12500000000000000        3.1250000000000000E-002   0.0000000000000000     
  0.14062500000000000        3.1250000000000000E-002   0.0000000000000000     
  0.15625000000000000        3.1250000000000000E-002   0.0000000000000000     
  0.17187500000000000        3.1250000000000000E-002   0.0000000000000000     
  0.18750000000000000        3.1250000000000000E-002   0.0000000000000000     
  0.12500000000000000        4.6875000000000000E-002   0.0000000000000000     
  0.14062500000000000        4.6875000000000000E-002   0.0000000000000000     
  0.15625000000000000        4.6875000000000000E-002   0.0000000000000000     
  0.17187500000000000        4.6875000000000000E-002   0.0000000000000000     
  0.18750000000000000        4.6875000000000000E-002   0.0000000000000000     
  0.12500000000000000        6.2500000000000000E-002   0.0000000000000000     
  0.14062500000000000        6.2500000000000000E-002   0.0000000000000000     
  0.15625000000000000        6.2500000000000000E-002   0.0000000000000000     
  0.17187500000000000        6.2500000000000000E-002   0.0000000000000000     
  0.18750000000000000        6.2500000000000000E-002   0.0000000000000000     
  0.18750000000000000        0.0000000000000000        0.0000000000000000     
  0.20312500000000000        0.0000000000000000        0.0000000000000000     
  0.21875000000000000        0.0000000000000000        0.0000000000000000     
  0.23437500000000000        0.0000000000000000        0.0000000000000000     
  0.25000000000000000        0.0000000000000000        0.0000000000000000     
  0.18750000000000000        1.5625000000000000E-002   0.0000000000000000     
  0.20312500000000000        1.5625000000000000E-002   0.0000000000000000     
  0.21875000000000000        1.5625000000000000E-002   0.0000000000000000     
  0.23437500000000000        1.5625000000000000E-002   0.0000000000000000     
  0.25000000000000000        1.5625000000000000E-002   0.0000000000000000     
  0.18750000000000000        3.1250000000000000E-002   0.0000000000000000     
  0.20312500000000000        3.1250000000000000E-002   0.0000000000000000     
  0.21875000000000000        3.1250000000000000E-002   0.0000000000000000     
  0.23437500000000000        3.1250000000000000E-002   0.0000000000000000     
  0.25000000000000000        3.1250000000000000E-002   0.0000000000000000     
  0.18750000000000000        4.6875000000000000E-002   0.0000000000000000     
  0.20312500000000000        4.6875000000000000E-002   0.0000000000000000     
  0.21875000000000000        4.6875000000000000E-002   0.0000000000000000     
  0.23437500000000000        4.6875000000000000E-002   0.0000000000000000     
  0.25000000000000000        4.6875000000000000E-002   0.0000000000000000     
  0.18750000000000000        6.2500000000000000E-002   0.0000000000000000     
  0.20312500000000000        6.2500000000000000E-002   0.0000000000000000     
  0.21875000000000000        6.2500000000000000E-002   0.0000000000000000     
  0.23437500000000000        6.2500000000000000E-002   0.0000000000000000     
  0.25000000000000000        6.2500000000000000E-002   0.0000000000000000     
  0.25000000000000000        0.0000000000000000        0.0000000000000000     
  0.26562500000000000        0.0000000000000000        0.0000000000000000     
  0.28125000000000000        0.0000000000000000        0.0000000000000000     
  0.29687500000000000        0.0000000000000000        0.0000000000000000     
  0.31250000000000000        0.0000000000000000        0.0000000000000000     
  0.25000000000000000        1.5625000000000000E-002   0.0000000000000000     
  0.26562500000000000        1.5625000000000000E-002   0.0000000000000000     
  0.28125000000000000        1.5625000000000000E-002   0.0000000000000000     
  0.29687500000000000        1.5625000000000000E-002   0.0000000000000000     
  0.31250000000000000        1.5625000000000000E-002   0.0000000000000000     
  0.25000000000000000        3.1250000000000000E-002   0.0000000000000000     
  0.26562500000000000        3.1250000000000000E-002   0.0000000000000000     
  0.28125000000000000        3.1250000000000000E-002   0.0000000000000000     
  0.29687500000000000        3.1250000000000000E-002   0.0000000000000000     
  0.31250000000000000        3.1250000000000000E-002   0.0000000000000000     
  0.25000000000000000        4.6875000000000000E-002   0.0000000000000000     
  0.26562500000000000        4.6875000000000000E-002   0.0000000000000000     
  0.28125000000000000        4.6875000000000000E-002   0.0000000000000000     
  0.29687500000000000        4.6875000000000000E-002   0.0000000000000000     
  0.31250000000000000        4.6875000000000000E-002   0.0000000000000000     
  0.25000000000000000        6.2500000000000000E-002   0.0000000000000000     
  0.26562500000000000        6.2500000000000000E-002   0.0000000000000000     
  0.28125000000000000        6.2500000000000000E-002   0.0000000000000000     
[...]
 <PointData>
 <DataArray  type="Float64" Name="disp" NumberOfComponents="3" format="ascii">
   0.0000000000000000        0.0000000000000000        0.0000000000000000     
   48607797002690008.        81338020916584144.        0.0000000000000000     
   82208504126135984.        1.1807747678936829E+017   0.0000000000000000     
   1.0080212137033795E+017   1.1021836761835242E+017   0.0000000000000000     
   1.0438864873529590E+017   57760693403536568.        0.0000000000000000     
   0.0000000000000000        0.0000000000000000        0.0000000000000000     
   52407013885941568.        66107705822852304.        0.0000000000000000     
   92148373658646656.        1.0045712647475134E+017   0.0000000000000000     
   1.1922407931811523E+017   1.0304826195569714E+017   0.0000000000000000     
   1.3363413086434738E+017   73881112265689664.        0.0000000000000000     
   0.0000000000000000        0.0000000000000000        0.0000000000000000     
   57895046411226824.        54244491215824544.        0.0000000000000000     
   1.0680011405037738E+017   85577717756006736.        0.0000000000000000     
   1.4671520291745171E+017   93999679620546560.        0.0000000000000000     
   1.7764031301244979E+017   79510376809444064.        0.0000000000000000     
   0.0000000000000000        0.0000000000000000        0.0000000000000000     
   65071894578545768.        45748377095500872.        0.0000000000000000     
   1.2616372530132819E+017   73439250633134448.        0.0000000000000000     
   1.8327549216834730E+017   83072620612900736.        0.0000000000000000     
   2.3640719517960310E+017   74648487034799712.        0.0000000000000000     
   0.0000000000000000        0.0000000000000000        0.0000000000000000     
   73937558387898400.        40619363461881288.        0.0000000000000000     
   1.5023920741149910E+017   64041725106134488.        0.0000000000000000     
   2.2890494707080208E+017   70267084932759600.        0.0000000000000000     
   3.0993477736580730E+017   59295442941756616.        0.0000000000000000     
   1.0438864873529590E+017   57760693403536568.        0.0000000000000000     
   1.0099167347230722E+017  -5653397782920216.0        0.0000000000000000     
   98634782832669360.       -46381757868858816.        0.0000000000000000     
   97317976816382272.       -64424386854279288.        0.0000000000000000     
   97041255423446000.       -59781284739181576.        0.0000000000000000     
   1.3363413086434738E+017   73881112265689664.        0.0000000000000000     
   1.4447279677265389E+017   28346894532535500.        0.0000000000000000     
   1.6083434551834570E+017  -18163174115958856.        0.0000000000000000     
   1.8271877710142278E+017  -65649093679793384.        0.0000000000000000     
   2.1012609152188522E+017  -1.1411086415896811E+017   0.0000000000000000     
   1.7764031301244979E+017   79510376809444064.        0.0000000000000000     
   2.0755475188041088E+017   44943606945128664.        0.0000000000000000     
   2.4443782706637430E+017  -6866832349970125.0        0.0000000000000000     
   2.8828953857034010E+017  -75920941075852304.        0.0000000000000000     
   3.3910988639230822E+017  -1.6221871923251792E+017   0.0000000000000000     
   2.3640719517960310E+017   74648487034799712.        0.0000000000000000     
   2.9023753879557824E+017   44136739454859280.        0.0000000000000000     
   3.4944522747675520E+017  -12492732570892638.        0.0000000000000000     
   4.1403026122313408E+017  -95239929042456048.        0.0000000000000000     
   4.8399264003471507E+017  -2.0410484995983098E+017   0.0000000000000000     
   3.0993477736580730E+017   59295442941756616.        0.0000000000000000     
   3.9252115751815584E+017   25926292061727352.        0.0000000000000000     
   4.7585654674948832E+017  -35040874778726400.        0.0000000000000000     
   5.5994094505980499E+017  -1.2360605757960462E+017   0.0000000000000000     
   6.4477435244910566E+017  -2.3976925634090733E+017   0.0000000000000000     
   97041255423446000.       -59781284739181576.        0.0000000000000000     
   72855061397387616.       -1.1276733864637146E+017   0.0000000000000000     
  -190162518265774.00       -3.0369743569865459E+017   0.0000000000000000     
  -1.2209441632351419E+017  -6.3257157589603123E+017   0.0000000000000000     
  -2.9285770001835757E+017  -1.0993897592385009E+018   0.0000000000000000     
   2.1012609152188522E+017  -1.1411086415896811E+017   0.0000000000000000     
   2.2223659065115789E+017  -2.0168641972656582E+017   0.0000000000000000     
   1.9823057636066586E+017  -3.6651369455566925E+017   0.0000000000000000     
   1.3810804865040915E+017  -6.0859268864627853E+017   0.0000000000000000     
   41869007520387776.       -9.2792340199839373E+017   0.0000000000000000     
   3.3910988639230822E+017  -1.6221871923251792E+017   0.0000000000000000     
   3.8155684231468442E+017  -2.7428713906399514E+017   0.0000000000000000     
   4.0028837811987450E+017  -4.2065317281431232E+017   0.0000000000000000     
   3.9530449380787853E+017  -6.0131682048346957E+017   0.0000000000000000     
   3.6660518937869638E+017  -8.1627808207146650E+017   0.0000000000000000     
   4.8399264003471507E+017  -2.0410484995983098E+017   0.0000000000000000     
   5.5081581638796736E+017  -3.3056949665865952E+017   0.0000000000000000     
   6.0598324275936026E+017  -4.6611587047458368E+017   0.0000000000000000     
   6.4949491914889370E+017  -6.1074397140760371E+017   0.0000000000000000     
   6.8135084555656806E+017  -7.6445379945771917E+017   0.0000000000000000     
   6.4477435244910566E+017  -2.3976925634090733E+017   0.0000000000000000     
   7.3001351287100634E+017  -3.7053349251055878E+017   0.0000000000000000     
   8.1531517027912282E+017  -5.0290178753648346E+017   0.0000000000000000     
   9.0067932467345510E+017  -6.3687414141868109E+017   0.0000000000000000     
   9.8610597605400307E+017  -7.7245055415715200E+017   0.0000000000000000     
  -2.9285770001835757E+017  -1.0993897592385009E+018   0.0000000000000000     
  -4.3871466044821472E+017  -1.5276559611443707E+018   0.0000000000000000     
  -4.8589994445850438E+017  -1.7408741570319480E+018   0.0000000000000000     
  -4.3441355204922643E+017  -1.7390443469012316E+018   0.0000000000000000     
  -2.8425548322038106E+017  -1.5221665307522227E+018   0.0000000000000000     
   41869007520387776.       -9.2792340199839373E+017   0.0000000000000000     
  -56888240298494048.       -1.2533642894560476E+018   0.0000000000000000     
  -1.2456538807533202E+017  -1.5137738058632742E+018   0.0000000000000000     
  -1.6116243581012602E+017  -1.7091519512200727E+018   0.0000000000000000     
  -1.6667938350287616E+017  -1.8394987255264438E+018   0.0000000000000000     
   3.6660518937869638E+017  -8.1627808207146650E+017   0.0000000000000000     
   3.1985693838443981E+017  -1.0668198503418762E+018   0.0000000000000000     
   2.6072621437722051E+017  -1.3542250180582715E+018   0.0000000000000000     
   1.8921301735703856E+017  -1.6784935852206525E+018   0.0000000000000000     
   1.0531734732389379E+017  -2.0396255518290191E+018   0.0000000000000000     
   6.8135084555656806E+017  -7.6445379945771917E+017   0.0000000000000000     
   6.9152087560058675E+017  -9.6802264380185626E+017   0.0000000000000000     
   6.6997486289915290E+017  -1.2622277936169403E+018   0.0000000000000000     
   6.1671280745226726E+017  -1.6470692489029714E+018   0.0000000000000000     
   5.3173470925992890E+017  -2.1225470096599496E+018   0.0000000000000000     
   9.8610597605400307E+017  -7.7245055415715200E+017   0.0000000000000000     
   1.0581035713499466E+018  -9.5697266983598771E+017   0.0000000000000000     
   1.1031805574904655E+018  -1.2377821325392799E+018   0.0000000000000000     
   1.1213369344755596E+018  -1.6148789422670287E+018   0.0000000000000000     
   1.1125727023052289E+018  -2.0882630990192340E+018   0.0000000000000000     
  -2.8425548322038106E+017  -1.5221665307522227E+018   0.0000000000000000     
  -2.6680532251292845E+017  -1.5235207552571855E+018   0.0000000000000000     
  -6.1344265446782899E+017  -2.1763870670883843E+018   0.0000000000000000     
  -1.3241674790850824E+018  -3.4807654662458194E+018   0.0000000000000000     
  -2.3989797963646894E+018  -5.4366559527294915E+018   0.0000000000000000     
  -1.6667938350287616E+017  -1.8394987255264438E+018   0.0000000000000000     
  -1.7918192181411904E+017  -2.0949846584550625E+018   0.0000000000000000     
  -2.3673574140439136E+017  -2.6657802796786053E+018   0.0000000000000000     
  -3.3934084227369318E+017  -3.5518855891970729E+018   0.0000000000000000     
  -4.8699722442202413E+017  -4.7533005870104627E+018   0.0000000000000000     
   1.0531734732389379E+017  -2.0396255518290191E+018   0.0000000000000000     
   76383635117028912.       -2.4607025189956024E+018   0.0000000000000000     
   1.6975631157568614E+017  -2.9648060878326364E+018   0.0000000000000000     
   3.8543537669986566E+017  -3.5519362583401190E+018   0.0000000000000000     
   7.2342083048956749E+017  -4.2220930305180503E+018   0.0000000000000000     
   5.3173470925992890E+017  -2.1225470096599496E+018   0.0000000000000000     
   4.9989134828051526E+017  -2.6206743368788076E+018   0.0000000000000000     
   6.0603350447240358E+017  -3.0734644915504773E+018   0.0000000000000000     
   8.5016117783559373E+017  -3.4809174736749583E+018   0.0000000000000000     
   1.2322743683700854E+018  -3.8430332832522522E+018   0.0000000000000000     
   1.1125727023052289E+018  -2.0882630990192340E+018   0.0000000000000000     
   1.0913412176763406E+018  -2.5749001121046733E+018   0.0000000000000000     
   1.0720958372857612E+018  -2.9917554908321265E+018   0.0000000000000000     
   1.0548365611334911E+018  -3.3388292352015913E+018   0.0000000000000000     
   1.0395633892195300E+018  -3.6161213452130688E+018   0.0000000000000000     
  -2.3989797963646894E+018  -5.4366559527294915E+018   0.0000000000000000     
  -3.0816563334131558E+018  -7.3558989370366904E+018   0.0000000000000000     
  -2.6159738173369897E+018  -8.5503348296647127E+018   0.0000000000000000     
  -1.0019322481361908E+018  -9.0199636306135542E+018   0.0000000000000000     
   1.7604683741892413E+018  -8.7647853398832179E+018   0.0000000000000000     
  -4.8699722442202413E+017  -4.7533005870104627E+018   0.0000000000000000     
  -6.4364139406805402E+017  -6.1129179674315817E+018   0.0000000000000000     
  -7.7320985743045120E+017  -7.4736304247732337E+018   0.0000000000000000     
  -8.7570261450921690E+017  -8.8354379590354186E+018   0.0000000000000000     
  -9.5111966530434995E+017  -1.0198340570218136E+019   0.0000000000000000     
   7.2342083048956749E+017  -4.2220930305180503E+018   0.0000000000000000     
   8.3369970730709786E+017  -5.1561069952924047E+018   0.0000000000000000     
   3.6625904151476390E+017  -6.5348087435891569E+018   0.0000000000000000     
  -6.7890116688743552E+017  -8.3581982754083041E+018   0.0000000000000000     
  -2.3017809178994985E+018  -1.0626275590749850E+019   0.0000000000000000     
   1.2322743683700854E+018  -3.8430332832522522E+018   0.0000000000000000     
   1.3503669707122988E+018  -4.4854660206191590E+018   0.0000000000000000     
   8.0243287949865574E+017  -5.7338697861124792E+018   0.0000000000000000     
  -4.1152790527084550E+017  -7.5882445797322148E+018   0.0000000000000000     
  -2.2915153835962040E+018  -1.0048590401478363E+019   0.0000000000000000     
   1.0395633892195300E+018  -3.6161213452130688E+018   0.0000000000000000     
   9.0636039614755008E+017  -4.1009950434118441E+018   0.0000000000000000     
   5.3531165652122419E+017  -5.0708135523432038E+018   0.0000000000000000     
  -73582829659448256.       -6.5255768720071465E+018   0.0000000000000000     
  -9.2032306239446707E+017  -8.4652850024036731E+018   0.0000000000000000     
   1.7604683741892413E+018  -8.7647853398832179E+018   0.0000000000000000     
   4.6888444613890396E+018  -8.1682239133532672E+018   0.0000000000000000     
   6.8008124252129362E+018  -7.6137033069032724E+018   0.0000000000000000     
   8.0963722656609311E+018  -7.1012235205332296E+018   0.0000000000000000     
   8.5755239827330253E+018  -6.6307845542431416E+018   0.0000000000000000     
  -9.5111966530434995E+017  -1.0198340570218136E+019   0.0000000000000000     
  -10999292303350528.       -1.1198487613243351E+019   0.0000000000000000     
   2.9331202220062807E+018  -1.1472028443033020E+019   0.0000000000000000     
   7.8812388776245443E+018  -1.1018963059587152E+019   0.0000000000000000     
   1.4833356674551439E+019  -9.8392914629057434E+018   0.0000000000000000     
  -2.3017809178994985E+018  -1.0626275590749850E+019   0.0000000000000000     
  -2.7712241424991519E+018  -1.2539636557921909E+019   0.0000000000000000     
  -3.5607477166412019E+017  -1.3298877045232593E+019   0.0000000000000000     
   4.9436671946055956E+018  -1.2903997052681904E+019   0.0000000000000000     
   1.3128001756309996E+019  -1.1354996580269840E+019   0.0000000000000000     
  -2.2915153835962040E+018  -1.0048590401478363E+019   0.0000000000000000     
  -3.5918300891983636E+018  -1.2191670747388948E+019   0.0000000000000000     
  -3.0667725557982659E+018  -1.3094249113501987E+019   0.0000000000000000     
  -7.1634278339591565E+017  -1.2756325499817482E+019   0.0000000000000000     
   3.4594592280086932E+018  -1.1177899906335431E+019   0.0000000000000000     
  -9.2032306239446707E+017  -8.4652850024036731E+018   0.0000000000000000     
  -2.4728171324009861E+018  -1.0154590181644464E+019   0.0000000000000000     
  -5.1989731303961600E+018  -1.0858144647841204E+019   0.0000000000000000     
  -9.0987910563799859E+018  -1.0575948400993886E+019   0.0000000000000000     
  -1.4172270910352470E+019  -9.3080014411025162E+018   0.0000000000000000     
   8.5755239827330253E+018  -6.6307845542431416E+018   0.0000000000000000     
   8.3651838271647427E+018  -6.0584199628041298E+018   0.0000000000000000     
   7.5922680496916132E+018  -5.2401633009873183E+018   0.0000000000000000     
   6.2567766503136307E+018  -4.1760145687927086E+018   0.0000000000000000     
   4.3587096290308014E+018  -2.8659737662202993E+018   0.0000000000000000     
   1.4833356674551439E+019  -9.8392914629057434E+018   0.0000000000000000     
   2.0832534638756876E+019  -8.2781466595902956E+018   0.0000000000000000     
   2.2921833796210758E+019  -6.6806616562423091E+018   0.0000000000000000     
   2.1101254146913096E+019  -5.0468364528617871E+018   0.0000000000000000     
   1.5370795690863870E+019  -3.3766710494487286E+018   0.0000000000000000     
   1.3128001756309996E+019  -1.1354996580269840E+019   0.0000000000000000     
   2.0539389273607373E+019  -9.2727286085786972E+018   0.0000000000000000     
   2.3520290106656035E+019  -7.2780461181907743E+018   0.0000000000000000     
   2.2070704255455973E+019  -5.3709491091060664E+018   0.0000000000000000     
   1.6190631720007195E+019  -3.5514375813245768E+018   0.0000000000000000     
   3.4594592280086932E+018  -1.1177899906335431E+019   0.0000000000000000     
   7.4857477317162486E+018  -9.0421658097693399E+018   0.0000000000000000     
   9.3876369810274427E+018  -7.0323166868327107E+018   0.0000000000000000     
   9.1651269759422863E+018  -5.1483525375255460E+018   0.0000000000000000     
   6.8182177164607683E+018  -3.3902733618478428E+018   0.0000000000000000     
  -1.4172270910352470E+019  -9.3080014411025162E+018   0.0000000000000000     
  -1.8328389986916514E+019  -7.5864582631622185E+018   0.0000000000000000     
  -1.9476125580675015E+019  -5.9434733621681213E+018   0.0000000000000000     
  -1.7615477691627977E+019  -4.3790467381202243E+018   0.0000000000000000     
  -1.2746446319775410E+019  -2.8931783910185272E+018   0.0000000000000000     
   4.3587096290308014E+018  -2.8659737662202993E+018   0.0000000000000000     
   2.4517741519564841E+018  -1.6121102802717517E+018   0.0000000000000000     
   1.0896773852040421E+018  -7.1649349794872640E+017   0.0000000000000000     
   2.7241932877347539E+017  -1.7912341925122330E+017   0.0000000000000000     
  -17335216058.319199       -44179242319.142067        0.0000000000000000     
   1.5370795690863870E+019  -3.3766710494487286E+018   0.0000000000000000     
   8.6460725647569521E+018  -1.8993774826046024E+018   0.0000000000000000     
   3.8426989052861798E+018  -8.4416778893087821E+017   0.0000000000000000     
   9.6067471245156045E+017  -2.1104196842755667E+017   0.0000000000000000     
  -13746908959.583336       -21094637414.688385        0.0000000000000000     
   1.6190631720007195E+019  -3.5514375813245768E+018   0.0000000000000000     
   9.1072303282397327E+018  -1.9976836423880138E+018   0.0000000000000000     
   4.0476579080836408E+018  -8.8785939983808973E+017   0.0000000000000000     
   1.0119144595389147E+018  -2.2196485367480400E+017   0.0000000000000000     
  -17394443887.663231       -3898156905.7927027        0.0000000000000000     
   6.8182177164607683E+018  -3.3902733618478428E+018   0.0000000000000000     
   3.8352474424048328E+018  -1.9070287596219863E+018   0.0000000000000000     
   1.7045543935964224E+018  -8.4756833067036058E+017   0.0000000000000000     
   4.2613857003553760E+017  -2.1189207499296534E+017   0.0000000000000000     
  -28277820842.558880        7410199207.5449772        0.0000000000000000     
  -1.2746446319775410E+019  -2.8931783910185272E+018   0.0000000000000000     
  -7.1698760927477514E+018  -1.6274128343065198E+018   0.0000000000000000     
  -3.1866116381754762E+018  -7.2329458142769088E+017   0.0000000000000000     
  -7.9665295605857037E+017  -1.8082363238204070E+017   0.0000000000000000     
  -46397039824.270287        12830430925.324657        0.0000000000000000     
  -17335216058.319199       -44179242319.142067        0.0000000000000000     
  -9436970159.8044662       -23907964598.879723        0.0000000000000000     
  -3846724826.5935540       -9612571170.0210266        0.0000000000000000     
  -564480058.68646145       -1293062032.5659873        0.0000000000000000     
   409764143.91681159        1050562813.4853990        0.0000000000000000     
  -13746908959.583336       -21094637414.688385        0.0000000000000000     
  -7529676890.0262308       -11705789844.777267        0.0000000000000000     
  -3117191969.0833893       -5034683241.3036337        0.0000000000000000     
  -509454196.75481367       -1081317604.2674835        0.0000000000000000     
   293536426.95949614        154307066.33118266        0.0000000000000000     
  -17394443887.663231       -3898156905.7927027        0.0000000000000000     
  -9639198780.9125061       -2489082845.7250648        0.0000000000000000     
  -4118113577.1226125       -1428516373.7322686        0.0000000000000000     
  -831188276.29355085       -716457489.81431425        0.0000000000000000     
   221577121.57467985       -352906193.97120172        0.0000000000000000     
  -28277820842.558880        7410199207.5449772        0.0000000000000000     
  -15765535832.463293        3742156398.2768869        0.0000000000000000     
  -6849489650.7112246        1205929432.6930671        0.0000000000000000     
  -1529682297.3026733       -198481689.20647973        0.0000000000000000     
   193886227.76236251       -471076967.42175406        0.0000000000000000     
  -46397039824.270287        12830430925.324657        0.0000000000000000     
  -25908688044.678593        6987927887.2285852        0.0000000000000000     
  -11311320189.849226        2868654177.9723730        0.0000000000000000     
  -2604936259.7821803        472609797.55601978        0.0000000000000000     
   210463745.52254421       -200205254.02047431        0.0000000000000000     
   409764143.91681159        1050562813.4853990        0.0000000000000000     
   244304898.87487549        496979638.93580425        0.0000000000000000     