 <VTKFile type="UnstructuredGrid"  version="0.1"   >
 <UnstructuredGrid>
 <Piece  NumberOfPoints="          6400 "  NumberOfCells="         4096 ">
 <Points>
 <DataArray  type="Float64" NumberOfComponents="3"  format="ascii" >
   0.0000000000000000        0.0000000000000000        0.0000000000000000     
   1.5625000000000000E-002   0.0000000000000000        0.0000000000000000     
   3.1250000000000000E-002   0.0000000000000000        0.0000000000000000     
   4.6875000000000000E-002   0.0000000000000000        0.0000000000000000     
   6.2500000000000000E-002   0.0000000000000000        0.0000000000000000     
   0.0000000000000000        1.5625000000000000E-002   0.0000000000000000     
   1.5625000000000000E-002   1.5625000000000000E-002   0.0000000000000000     
   3.1250000000000000E-002   1.5625000000000000E-002   0.0000000000000000     
   4.6875000000000000E-002   1.5625000000000000E-002   0.0000000000000000     
   6.2500000000000000E-002   1.5625000000000000E-002   0.0000000000000000     
   0.0000000000000000        3.1250000000000000E-002   0.0000000000000000     
   1.5625000000000000E-002   3.1250000000000000E-002   0.0000000000000000     
   3.1250000000000000E-002   3.1250000000000000E-002   0.0000000000000000     
   4.6875000000000000E-002   3.1250000000000000E-002   0.0000000000000000     
   6.2500000000000000E-002   3.1250000000000000E-002   0.0000000000000000     
   0.0000000000000000        4.6875000000000000E-002   0.0000000000000000     
   1.5625000000000000E-002   4.6875000000000000E-002   0.0000000000000000     
   3.1250000000000000E-002   4.6875000000000000E-002   0.0000000000000000     
   4.6875000000000000E-002   4.6875000000000000E-002   0.0000000000000000     
   6.2500000000000000E-002   4.6875000000000000E-002   0.0000000000000000     
   0.0000000000000000        6.2500000000000000E-002   0.0000000000000000     
   1.5625000000000000E-002   6.2500000000000000E-002   0.0000000000000000     
   3.1250000000000000E-002   6.2500000000000000E-002   0.0000000000000000     
   4.6875000000000000E-002   6.2500000000000000E-002   0.0000000000000000     
   6.2500000000000000E-002   6.2500000000000000E-002   0.0000000000000000     
   6.2500000000000000E-002   0.0000000000000000        0.0000000000000000     
   7.8125000000000000E-002   0.0000000000000000        0.0000000000000000     
   9.3750000000000000E-002   0.0000000000000000        0.0000000000000000     
  0.10937500000000000        0.0000000000000000        0.0000000000000000     
  0.12500000000000000        0.0000000000000000        0.0000000000000000     
   6.2500000000000000E-002   1.5625000000000000E-002   0.0000000000000000     
   7.8125000000000000E-002   1.5625000000000000E-002   0.0000000000000000     
   9.3750000000000000E-002   1.5625000000000000E-002   0.0000000000000000     
  0.10937500000000000        1.5625000000000000E-002   0.0000000000000000     
  0.12500000000000000        1.5625000000000000E-002   0.0000000000000000     
   6.2500000000000000E-002   3.1250000000000000E-002   0.0000000000000000     
   7.8125000000000000E-002   3.1250000000000000E-002   0.0000000000000000     
   9.3750000000000000E-002   3.1250000000000000E-002   0.0000000000000000     
  0.10937500000000000        3.1250000000000000E-002   0.0000000000000000     
  0.12500000000000000        3.1250000000000000E-002   0.0000000000000000     
   6.2500000000000000E-002   4.6875000000000000E-002   0.0000000000000000     
   7.8125000000000000E-002   4.6875000000000000E-002   0.0000000000000000     
   9.3750000000000000E-002   4.6875000000000000E-002   0.0000000000000000     
  0.10937500000000000        4.6875000000000000E-002   0.0000000000000000     
  0.12500000000000000        4.6875000000000000E-002   0.0000000000000000     
   6.2500000000000000E-002   6.2500000000000000E-002   0.0000000000000000     
   7.8125000000000000E-002   6.2500000000000000E-002   0.0000000000000000     
   9.3750000000000000E-002   6.2500000000000000E-002   0.0000000000000000     
  0.10937500000000000        6.2500000000000000E-002   0.0000000000000000     
  0.12500000000000000        6.2500000000000000E-002   0.0000000000000000     
  0.12500000000000000        0.0000000000000000        0.0000000000000000     
  0.14062500000000000        0.0000000000000000        0.0000000000000000     
  0.15625000000000000        0.0000000000000000        0.0000000000000000     
  0.17187500000000000        0.0000000000000000        0.0000000000000000     
  0.18750000000000000        0.0000000000000000        0.0000000000000000     
  0.12500000000000000        1.5625000000000000E-002   0.0000000000000000     
  0.14062500000000000        1.5625000000000000E-002   0.0000000000000000     
  0.15625000000000000        1.5625000000000000E-002   0.0000000000000000     
  0.17187500000000000        1.5625000000000000E-002   0.0000000000000000     
  0.18750000000000000        1.5625000000000000E-002   0.0000000000000000     
  0.12500000000000000        3.1250000000000000E-002   0.0000000000000000     
  0.14062500000000000        3.1250000000000000E-002   0.0000000000000000     
  0.15625000000000000        3.1250000000000000E-002   0.0000000000000000     
  0.17187500000000000        3.1250000000000000E-002   0.0000000000000000     
  0.18750000000000000        3.1250000000000000E-002   0.0000000000000000     
  0.12500000000000000        4.6875000000000000E-002   0.0000000000000000     
  0.14062500000000000        4.6875000000000000E-002   0.0000000000000000     
  0.15625000000000000        4.6875000000000000E-002   0.0000000000000000     
  0.17187500000000000        4.6875000000000000E-002   0.0000000000000000     
  0.18750000000000000        4.6875000000000000E-002   0.0000000000000000     
  0.12500000000000000        6.2500000000000000E-002   0.0000000000000000     
  0.14062500000000000        6.2500000000000000E-002   0.0000000000000000     
  0.15625000000000000        6.2500000000000000E-002   0.0000000000000000     
  0.17187500000000000        6.2500000000000000E-002   0.0000000000000000     
  0.18750000000000000        6.2500000000000000E-002   0.0000000000000000     
  0.18750000000000000        0.0000000000000000        0.0000000000000000     
  0.20312500000000000        0.0000000000000000        0.0000000000000000     
  0.21875000000000000        0.0000000000000000        0.0000000000000000     
  0.23437500000000000        0.0000000000000000        0.0000000000000000     
  0.25000000000000000        0.0000000000000000        0.0000000000000000     
  0.18750000000000000        1.5625000000000000E-002   0.0000000000000000     
  0.20312500000000000        1.5625000000000000E-002   0.0000000000000000     
  0.21875000000000000        1.5625000000000000E-002   0.0000000000000000     
  0.23437500000000000        1.5625000000000000E-002   0.0000000000000000     
  0.25000000000000000        1.5625000000000000E-002   0.0000000000000000     
  0.18750000000000000        3.1250000000000000E-002   0.0000000000000000     
  0.20312500000000000        3.1250000000000000E-002   0.0000000000000000     
  0.21875000000000000        3.1250000000000000E-002   0.0000000000000000     
  0.23437500000000000        3.1250000000000000E-002   0.0000000000000000     
  0.25000000000000000        3.1250000000000000E-002   0.0000000000000000     
  0.18750000000000000        4.6875000000000000E-002   0.0000000000000000     
  0.20312500000000000        4.6875000000000000E-002   0.0000000000000000     
  0.21875000000000000        4.6875000000000000E-002   0.0000000000000000     
  0.23437500000000000        4.6875000000000000E-002   0.0000000000000000     
  0.25000000000000000        4.6875000000000000E-002   0.0000000000000000     
  0.18750000000000000        6.2500000000000000E-002   0.0000000000000000     
  0.20312500000000000        6.2500000000000000E-002   0.0000000000000000     
  0.21875000000000000        6.2500000000000000E-002   0.0000000000000000     
  0.23437500000000000        6.2500000000000000E-002   0.0000000000000000     
  0.25000000000000000        6.2500000000000000E-002   0.0000000000000000     
  0.25000000000000000        0.0000000000000000        0.0000000000000000     
  0.26562500000000000        0.0000000000000000        0.0000000000000000     
  0.28125000000000000        0.0000000000000000        0.0000000000000000     
  0.29687500000000000        0.0000000000000000        0.0000000000000000     
  0.31250000000000000        0.0000000000000000        0.0000000000000000     
  0.25000000000000000        1.5625000000000000E-002   0.0000000000000000     
  0.26562500000000000        1.5625000000000000E-002   0.0000000000000000     
  0.28125000000000000        1.5625000000000000E-002   0.0000000000000000     
  0.29687500000000000        1.5625000000000000E-002   0.0000000000000000     
  0.31250000000000000        1.5625000000000000E-002   0.0000000000000000     
  0.25000000000000000        3.1250000000000000E-002   0.0000000000000000     
  0.26562500000000000        3.1250000000000000E-002   0.0000000000000000     
  0.28125000000000000        3.1250000000000000E-002   0.0000000000000000     
  0.29687500000000000        3.1250000000000000E-002   0.0000000000000000     
  0.31250000000000000        3.1250000000000000E-002   0.0000000000000000     
  0.25000000000000000        4.6875000000000000E-002   0.0000000000000000     
  0.26562500000000000        4.6875000000000000E-002   0.0000000000000000     
  0.28125000000000000        4.6875000000000000E-002   0.0000000000000000     
  0.29687500000000000        4.6875000000000000E-002   0.0000000000000000     
  0.31250000000000000        4.6875000000000000E-002   0.0000000000000000     
  0.25000000000000000        6.2500000000000000E-002   0.0000000000000000     
  0.26562500000000000        6.2500000000000000E-002   0.0000000000000000     
  0.28125000000000000        6.2500000000000000E-002   0.0000000000000000     
[...]
 <PointData>
 <DataArray  type="Float64" Name="disp" NumberOfComponents="3" format="ascii">
   0.0000000000000000        0.0000000000000000        0.0000000000000000     
   0.0000000000000000        0.0000000000000000        0.0000000000000000     
   0.0000000000000000        0.0000000000000000        0.0000000000000000     
   0.0000000000000000        0.0000000000000000        0.0000000000000000     
   0.0000000000000000        0.0000000000000000        0.0000000000000000     
   0.0000000000000000        0.0000000000000000        0.0000000000000000     
   0.0000000000000000        0.0000000000000000        0.0000000000000000     
   0.0000000000000000        0.0000000000000000        0.0000000000000000     
   0.0000000000000000        0.0000000000000000        0.0000000000000000     
   0.0000000000000000        0.0000000000000000        0.0000000000000000     
   0.0000000000000000        0.0000000000000000        0.0000000000000000     
   0.0000000000000000        0.0000000000000000        0.0000000000000000     
   0.0000000000000000        0.0000000000000000        0.0000000000000000     
   0.0000000000000000        0.0000000000000000        0.0000000000000000     
   0.0000000000000000        0.0000000000000000        0.0000000000000000     
   0.0000000000000000        0.0000000000000000        0.0000000000000000     
   0.0000000000000000        0.0000000000000000        0.0000000000000000     
   0.0000000000000000        0.0000000000000000        0.0000000000000000     
   0.0000000000000000        0.0000000000000000        0.0000000000000000     
   0.0000000000000000        0.0000000000000000        0.0000000000000000     
   0.0000000000000000        0.0000000000000000        0.0000000000000000     
   0.0000000000000000        0.0000000000000000        0.0000000000000000     
   0.0000000000000000        0.0000000000000000        0.0000000000000000     
   0.0000000000000000        0.0000000000000000        0.0000000000000000     
   0.0000000000000000        0.0000000000000000        0.0000000000000000     
   0.0000000000000000        0.0000000000000000        0.0000000000000000     
   0.0000000000000000        0.0000000000000000        0.0000000000000000     
   0.0000000000000000        0.0000000000000000        0.0000000000000000     
   0.0000000000000000        0.0000000000000000        0.0000000000000000     
   0.0000000000000000        0.0000000000000000        0.0000000000000000     
   0.0000000000000000        0.0000000000000000        0.0000000000000000     
   0.0000000000000000        0.0000000000000000        0.0000000000000000     
   0.0000000000000000        0.0000000000000000        0.0000000000000000     
   0.0000000000000000        0.0000000000000000        0.0000000000000000     
   0.0000000000000000        0.0000000000000000        0.0000000000000000     
   0.0000000000000000        0.0000000000000000        0.0000000000000000     
   0.0000000000000000        0.0000000000000000        0.0000000000000000     
   0.0000000000000000        0.0000000000000000        0.0000000000000000     
   0.0000000000000000        0.0000000000000000        0.0000000000000000     
   0.0000000000000000        0.0000000000000000        0.0000000000000000     
   0.0000000000000000        0.0000000000000000        0.0000000000000000     
   0.0000000000000000        0.0000000000000000        0.0000000000000000     
   0.0000000000000000        0.0000000000000000        0.0000000000000000     
   0.0000000000000000        0.0000000000000000        0.0000000000000000     
   0.0000000000000000        0.0000000000000000        0.0000000000000000     
   0.0000000000000000        0.0000000000000000        0.0000000000000000     
   0.0000000000000000        0.0000000000000000        0.0000000000000000     
   0.0000000000000000        0.0000000000000000        0.0000000000000000     
   0.0000000000000000        0.0000000000000000        0.0000000000000000     
   0.0000000000000000        0.0000000000000000        0.0000000000000000     
   0.0000000000000000        0.0000000000000000        0.0000000000000000     
   0.0000000000000000        0.0000000000000000        0.0000000000000000     
   0.0000000000000000        0.0000000000000000        0.0000000000000000     
   0.0000000000000000        0.0000000000000000        0.0000000000000000     
   0.0000000000000000        0.0000000000000000        0.0000000000000000     
   0.0000000000000000        0.0000000000000000        0.0000000000000000     
   0.0000000000000000        0.0000000000000000        0.0000000000000000     
   0.0000000000000000        0.0000000000000000        0.0000000000000000     
   0.0000000000000000        0.0000000000000000        0.0000000000000000     
   0.0000000000000000        0.0000000000000000        0.0000000000000000     
   0.0000000000000000        0.0000000000000000        0.0000000000000000     
   0.0000000000000000        0.0000000000000000        0.0000000000000000     
   0.0000000000000000        0.0000000000000000        0.0000000000000000     
   0.0000000000000000        0.0000000000000000        0.0000000000000000     
   0.0000000000000000        0.0000000000000000        0.0000000000000000     
   0.0000000000000000        0.0000000000000000        0.0000000000000000     
   0.0000000000000000        0.0000000000000000        0.0000000000000000     
   0.0000000000000000        0.0000000000000000        0.0000000000000000     
   0.0000000000000000        0.0000000000000000        0.0000000000000000     
   0.0000000000000000        0.0000000000000000        0.0000000000000000     
   0.0000000000000000        0.0000000000000000        0.0000000000000000     
   0.0000000000000000        0.0000000000000000        0.0000000000000000     
   0.0000000000000000        0.0000000000000000        0.0000000000000000     
   0.0000000000000000        0.0000000000000000        0.0000000000000000     
   0.0000000000000000        0.0000000000000000        0.0000000000000000     
   0.0000000000000000        0.0000000000000000        0.0000000000000000     
   0.0000000000000000        0.0000000000000000        0.0000000000000000     
   0.0000000000000000        0.0000000000000000        0.0000000000000000     
   0.0000000000000000        0.0000000000000000        0.0000000000000000     
   0.0000000000000000        0.0000000000000000        0.0000000000000000     
   0.0000000000000000        0.0000000000000000        0.0000000000000000     
   0.0000000000000000        0.0000000000000000        0.0000000000000000     
   0.0000000000000000        0.0000000000000000        0.0000000000000000     
   0.0000000000000000        0.0000000000000000        0.0000000000000000     
   0.0000000000000000        0.0000000000000000        0.0000000000000000     
   0.0000000000000000        0.0000000000000000        0.0000000000000000     
   0.0000000000000000        0.0000000000000000        0.0000000000000000     
   0.0000000000000000        0.0000000000000000        0.0000000000000000     
   0.0000000000000000        0.0000000000000000        0.0000000000000000     
   0.0000000000000000        0.0000000000000000        0.0000000000000000     
   0.0000000000000000        0.0000000000000000        0.0000000000000000     
   0.0000000000000000        0.0000000000000000        0.0000000000000000     
   0.0000000000000000        0.0000000000000000        0.0000000000000000     
   0.0000000000000000        0.0000000000000000        0.0000000000000000     
   0.0000000000000000        0.0000000000000000        0.0000000000000000     
   0.0000000000000000        0.0000000000000000        0.0000000000000000     
   0.0000000000000000        0.0000000000000000        0.0000000000000000     
   0.0000000000000000        0.0000000000000000        0.0000000000000000     
   0.0000000000000000        0.0000000000000000        0.0000000000000000     
   0.0000000000000000        0.0000000000000000        0.0000000000000000     
   0.0000000000000000        0.0000000000000000        0.0000000000000000     
   0.0000000000000000        0.0000000000000000        0.0000000000000000     
   0.0000000000000000        0.0000000000000000        0.0000000000000000     
   0.0000000000000000        0.0000000000000000        0.0000000000000000     
   0.0000000000000000        0.0000000000000000        0.0000000000000000     
   0.0000000000000000        0.0000000000000000        0.0000000000000000     
   0.0000000000000000        0.0000000000000000        0.0000000000000000     
   0.0000000000000000        0.0000000000000000        0.0000000000000000     
   0.0000000000000000        0.0000000000000000        0.0000000000000000     
   0.0000000000000000        0.0000000000000000        0.0000000000000000     
   0.0000000000000000        0.0000000000000000        0.0000000000000000     
   0.0000000000000000        0.0000000000000000        0.0000000000000000     
   0.0000000000000000        0.0000000000000000        0.0000000000000000     
   0.0000000000000000        0.0000000000000000        0.0000000000000000     
   0.0000000000000000        0.0000000000000000        0.0000000000000000     
   0.0000000000000000        0.0000000000000000        0.0000000000000000     
   0.0000000000000000        0.0000000000000000        0.0000000000000000     
   0.0000000000000000        0.0000000000000000        0.0000000000000000     
   0.0000000000000000        0.0000000000000000        0.0000000000000000     
   0.0000000000000000        0.0000000000000000        0.0000000000000000     
   0.0000000000000000        0.0000000000000000        0.0000000000000000     
   0.0000000000000000        0.0000000000000000        0.0000000000000000     
   0.0000000000000000        0.0000000000000000        0.0000000000000000     
   0.0000000000000000        0.0000000000000000        0.0000000000000000     
   0.0000000000000000        0.0000000000000000        0.0000000000000000     
   0.0000000000000000        0.0000000000000000        0.0000000000000000     
   0.0000000000000000        0.0000000000000000        0.0000000000000000     
   0.0000000000000000        0.0000000000000000        0.0000000000000000     
   0.0000000000000000        0.0000000000000000        0.0000000000000000     
   0.0000000000000000        0.0000000000000000        0.0000000000000000     
   0.0000000000000000        0.0000000000000000        0.0000000000000000     
   0.0000000000000000        0.0000000000000000        0.0000000000000000     
   0.0000000000000000        0.0000000000000000        0.0000000000000000     
   0.0000000000000000        0.0000000000000000        0.0000000000000000     
   0.0000000000000000        0.0000000000000000        0.0000000000000000     
   0.0000000000000000        0.0000000000000000        0.0000000000000000     
   0.0000000000000000        0.0000000000000000        0.0000000000000000     
   0.0000000000000000        0.0000000000000000        0.0000000000000000     
   0.0000000000000000        0.0000000000000000        0.0000000000000000     
   0.0000000000000000        0.0000000000000000        0.0000000000000000     
   0.0000000000000000        0.0000000000000000        0.0000000000000000     
   0.0000000000000000        0.0000000000000000        0.0000000000000000     
   0.0000000000000000        0.0000000000000000        0.0000000000000000     
   0.0000000000000000        0.0000000000000000        0.0000000000000000     
   0.0000000000000000        0.0000000000000000        0.0000000000000000     
   0.0000000000000000        0.0000000000000000        0.0000000000000000     
   0.0000000000000000        0.0000000000000000        0.0000000000000000     
   0.0000000000000000        0.0000000000000000        0.0000000000000000     
   0.0000000000000000        0.0000000000000000        0.0000000000000000     
   0.0000000000000000        0.0000000000000000        0.0000000000000000     
   0.0000000000000000        0.0000000000000000        0.0000000000000000     
   0.0000000000000000        0.0000000000000000        0.0000000000000000     
   0.0000000000000000        0.0000000000000000        0.0000000000000000     
   0.0000000000000000        0.0000000000000000        0.0000000000000000     
   0.0000000000000000        0.0000000000000000        0.0000000000000000     
   0.0000000000000000        0.0000000000000000        0.0000000000000000     
   0.0000000000000000        0.0000000000000000        0.0000000000000000     
   0.0000000000000000        0.0000000000000000        0.0000000000000000     
   0.0000000000000000        0.0000000000000000        0.0000000000000000     
   0.0000000000000000        0.0000000000000000        0.0000000000000000     
   0.0000000000000000        0.0000000000000000        0.0000000000000000     
   0.0000000000000000        0.0000000000000000        0.0000000000000000     
   0.0000000000000000        0.0000000000000000        0.0000000000000000     
   0.0000000000000000        0.0000000000000000        0.0000000000000000     
   0.0000000000000000        0.0000000000000000        0.0000000000000000     
   0.0000000000000000        0.0000000000000000        0.0000000000000000     
   0.0000000000000000        0.0000000000000000        0.0000000000000000     
   0.0000000000000000        0.0000000000000000        0.0000000000000000     
   0.0000000000000000        0.0000000000000000        0.0000000000000000     
   0.0000000000000000        0.0000000000000000        0.0000000000000000     
   0.0000000000000000        0.0000000000000000        0.0000000000000000     
   0.0000000000000000        0.0000000000000000        0.0000000000000000     
   0.0000000000000000        0.0000000000000000        0.0000000000000000     
   0.0000000000000000        0.0000000000000000        0.0000000000000000     
   0.0000000000000000        0.0000000000000000        0.0000000000000000     
   0.0000000000000000        0.0000000000000000        0.0000000000000000     
   9411.6526054590577        0.0000000000000000        0.0000000000000000     
   37646.610421836231        0.0000000000000000        0.0000000000000000     
   84704.873449131526        0.0000000000000000        0.0000000000000000     
   150586.44168734492        0.0000000000000000        0.0000000000000000     
   0.0000000000000000        0.0000000000000000        0.0000000000000000     
   5267.2023264468689        0.0000000000000000        0.0000000000000000     
   21068.809305787476        0.0000000000000000        0.0000000000000000     
   47404.820938021825        0.0000000000000000        0.0000000000000000     
   84275.237223149903        0.0000000000000000        0.0000000000000000     
   0.0000000000000000        0.0000000000000000        0.0000000000000000     
   2323.3988317114649        0.0000000000000000        0.0000000000000000     
   9293.5953268458597        0.0000000000000000        0.0000000000000000     
   20910.589485403187        0.0000000000000000        0.0000000000000000     
   37174.381307383439        0.0000000000000000        0.0000000000000000     
   0.0000000000000000        0.0000000000000000        0.0000000000000000     
   580.24212125284566        0.0000000000000000        0.0000000000000000     
   2320.9684850113827        0.0000000000000000        0.0000000000000000     
   5222.1790912756114        0.0000000000000000        0.0000000000000000     
   9283.8739400455306        0.0000000000000000        0.0000000000000000     
   0.0000000000000000        0.0000000000000000        0.0000000000000000     
   37.732195071011176        0.0000000000000000        0.0000000000000000     
   150.92878028404471        0.0000000000000000        0.0000000000000000     
   339.58975563910059        0.0000000000000000        0.0000000000000000     
   603.71512113617882        0.0000000000000000        0.0000000000000000     
   150586.44168734492        0.0000000000000000        0.0000000000000000     
   204034.43586552946       -1736.0000000000000        0.0000000000000000     
   213791.97671273819       -6944.0000000000000        0.0000000000000000     
   179859.06422897108       -15624.000000000000        0.0000000000000000     
   102235.69841422817       -27776.000000000000        0.0000000000000000     
   84275.237223149903        0.0000000000000000        0.0000000000000000     
   114211.75692336104       -982.69495166487638        0.0000000000000000     
   119746.07880084454       -3930.7798066595055        0.0000000000000000     
   100878.20285560041       -8844.2545649838867        0.0000000000000000     
   57608.129087628666       -15723.119226638022        0.0000000000000000     
   37174.381307383439        0.0000000000000000        0.0000000000000000     
   50415.034848942058       -443.41138560687421        0.0000000000000000     
   52962.614166234496       -1773.6455424274968        0.0000000000000000     
   44817.119259260740       -3990.7024704618675        0.0000000000000000     
   25978.550128020805       -7094.5821697099873        0.0000000000000000     
   9283.8739400455306        0.0000000000000000        0.0000000000000000     
   12644.269642272546       -118.14930182599340        0.0000000000000000     
   13441.582808908066       -472.59720730397362        0.0000000000000000     
   11675.813439952088       -1063.3437164339407        0.0000000000000000     
   7346.9615354046146       -1890.3888292158945        0.0000000000000000     
   603.71512113617882        0.0000000000000000        0.0000000000000000     
   899.46130335249006       -6.9087003222340471        0.0000000000000000     
   1182.9847288652450       -27.634801288936188        0.0000000000000000     
   1454.2853976744436       -62.178302900106424        0.0000000000000000     
   1713.3633097800857       -110.53920515574475        0.0000000000000000     
   102235.69841422817       -27776.000000000000        0.0000000000000000     
   18994.841937726422       -38222.722443953804        0.0000000000000000     
  -31790.542531317144       -41786.889775815216        0.0000000000000000     
  -50120.454992902567       -38468.501995584236        0.0000000000000000     
  -35994.895447029790       -28267.559103260868        0.0000000000000000     
   57608.129087628666       -15723.119226638022        0.0000000000000000     
   11171.888223430564       -21640.317085095536        0.0000000000000000     
  -17194.489010492580       -23668.791433830058        0.0000000000000000     
  -27491.002614140765       -21808.542272841583        0.0000000000000000     
  -19717.652587514000       -16059.569602130114        0.0000000000000000     
   25978.550128020805       -7094.5821697099873        0.0000000000000000     
   5709.5295225205045       -9767.9841436897968        0.0000000000000000     
  -6727.3198072343203       -10693.607895919242        0.0000000000000000     
  -11331.997861243679       -9871.4534263983187        0.0000000000000000     
  -8104.5046395075606       -7301.5207351270292        0.0000000000000000     
   7346.9615354046146       -1890.3888292158945        0.0000000000000000     
   2607.7658349962530       -2605.7236197365874        0.0000000000000000     
  -389.03492154238256       -2861.3391620827720        0.0000000000000000     
  -1643.4407342112950       -2657.2354562544479        0.0000000000000000     
  -1155.4516030104812       -1993.4125022516148        0.0000000000000000     
   1713.3633097800857       -110.53920515574475        0.0000000000000000     
   1866.5971608578063       -153.53551323590693        0.0000000000000000     
   1820.3656465832385       -171.98523232064869        0.0000000000000000     
   1574.6687669563833       -165.88836240997011        0.0000000000000000     
   1129.5065219772403       -135.24490350387111        0.0000000000000000     
  -35994.895447029790       -28267.559103260868        0.0000000000000000     
  -10941.817471103681       -16340.932823761650        0.0000000000000000     