 <VTKFile type="UnstructuredGrid"  version="0.1"   >
 <UnstructuredGrid>
 <Piece  NumberOfPoints="          1600 "  NumberOfCells="         1024 ">
 <Points>
 <DataArray  type="Float64" NumberOfComponents="3"  format="ascii" >
   0.0000000000000000        0.0000000000000000        0.0000000000000000     
   3.1250000000000000E-002   0.0000000000000000        0.0000000000000000     
   6.2500000000000000E-002   0.0000000000000000        0.0000000000000000     
   9.3750000000000000E-002   0.0000000000000000        0.0000000000000000     
  0.12500000000000000        0.0000000000000000        0.0000000000000000     
   0.0000000000000000        3.1250000000000000E-002   0.0000000000000000     
   3.1250000000000000E-002   3.1250000000000000E-002   0.0000000000000000     
   6.2500000000000000E-002   3.1250000000000000E-002   0.0000000000000000     
   9.3750000000000000E-002   3.1250000000000000E-002   0.0000000000000000     
  0.12500000000000000        3.1250000000000000E-002   0.0000000000000000     
   0.0000000000000000        6.2500000000000000E-002   0.0000000000000000     
   3.1250000000000000E-002   6.2500000000000000E-002   0.0000000000000000     
   6.2500000000000000E-002   6.2500000000000000E-002   0.0000000000000000     
   9.3750000000000000E-002   6.2500000000000000E-002   0.0000000000000000     
  0.12500000000000000        6.2500000000000000E-002   0.0000000000000000     
   0.0000000000000000        9.3750000000000000E-002   0.0000000000000000     
   3.1250000000000000E-002   9.3750000000000000E-002   0.0000000000000000     
   6.2500000000000000E-002   9.3750000000000000E-002   0.0000000000000000     
   9.3750000000000000E-002   9.3750000000000000E-002   0.0000000000000000     
  0.12500000000000000        9.3750000000000000E-002   0.0000000000000000     
   0.0000000000000000       0.12500000000000000        0.0000000000000000     
   3.1250000000000000E-002  0.12500000000000000        0.0000000000000000     
   6.2500000000000000E-002  0.12500000000000000        0.0000000000000000     
   9.3750000000000000E-002  0.12500000000000000        0.0000000000000000     
  0.12500000000000000       0.12500000000000000        0.0000000000000000     
  0.12500000000000000        0.0000000000000000        0.0000000000000000     
  0.15625000000000000        0.0000000000000000        0.0000000000000000     
  0.18750000000000000        0.0000000000000000        0.0000000000000000     
  0.21875000000000000        0.0000000000000000        0.0000000000000000     
  0.25000000000000000        0.0000000000000000        0.0000000000000000     
  0.12500000000000000        3.1250000000000000E-002   0.0000000000000000     
  0.15625000000000000        3.1250000000000000E-002   0.0000000000000000     
  0.18750000000000000        3.1250000000000000E-002   0.0000000000000000     
  0.21875000000000000        3.1250000000000000E-002   0.0000000000000000     
  0.25000000000000000        3.1250000000000000E-002   0.0000000000000000     
  0.12500000000000000        6.2500000000000000E-002   0.0000000000000000     
  0.15625000000000000        6.2500000000000000E-002   0.0000000000000000     
  0.18750000000000000        6.2500000000000000E-002   0.0000000000000000     
  0.21875000000000000        6.2500000000000000E-002   0.0000000000000000     
  0.25000000000000000        6.2500000000000000E-002   0.0000000000000000     
  0.12500000000000000        9.3750000000000000E-002   0.0000000000000000     
  0.15625000000000000        9.3750000000000000E-002   0.0000000000000000     
  0.18750000000000000        9.3750000000000000E-002   0.0000000000000000     
  0.21875000000000000        9.3750000000000000E-002   0.0000000000000000     
  0.25000000000000000        9.3750000000000000E-002   0.0000000000000000     
  0.12500000000000000       0.12500000000000000        0.0000000000000000     
  0.15625000000000000       0.12500000000000000        0.0000000000000000     
  0.18750000000000000       0.12500000000000000        0.0000000000000000     
  0.21875000000000000       0.12500000000000000        0.0000000000000000     
  0.25000000000000000       0.12500000000000000        0.0000000000000000     
  0.25000000000000000        0.0000000000000000        0.0000000000000000     
  0.28125000000000000        0.0000000000000000        0.0000000000000000     
  0.31250000000000000        0.0000000000000000        0.0000000000000000     
  0.34375000000000000        0.0000000000000000        0.0000000000000000     
  0.37500000000000000        0.0000000000000000        0.0000000000000000     
  0.25000000000000000        3.1250000000000000E-002   0.0000000000000000     
  0.28125000000000000        3.1250000000000000E-002   0.0000000000000000     
  0.31250000000000000        3.1250000000000000E-002   0.0000000000000000     
  0.34375000000000000        3.1250000000000000E-002   0.0000000000000000     
  0.37500000000000000        3.1250000000000000E-002   0.0000000000000000     
  0.25000000000000000        6.2500000000000000E-002   0.0000000000000000     
  0.28125000000000000        6.2500000000000000E-002   0.0000000000000000     
  0.31250000000000000        6.2500000000000000E-002   0.0000000000000000     
  0.34375000000000000        6.2500000000000000E-002   0.0000000000000000     
  0.37500000000000000        6.2500000000000000E-002   0.0000000000000000     
  0.25000000000000000        9.3750000000000000E-002   0.0000000000000000     
  0.28125000000000000        9.3750000000000000E-002   0.0000000000000000     
  0.31250000000000000        9.3750000000000000E-002   0.0000000000000000     
  0.34375000000000000        9.3750000000000000E-002   0.0000000000000000     
  0.37500000000000000        9.3750000000000000E-002   0.0000000000000000     
  0.25000000000000000       0.12500000000000000        0.0000000000000000     
  0.28125000000000000       0.12500000000000000        0.0000000000000000     
  0.31250000000000000       0.12500000000000000        0.0000000000000000     
  0.34375000000000000       0.12500000000000000        0.0000000000000000     
  0.37500000000000000       0.12500000000000000        0.0000000000000000     
  0.37500000000000000        0.0000000000000000        0.0000000000000000     
  0.40625000000000000        0.0000000000000000        0.0000000000000000     
  0.43750000000000000        0.0000000000000000        0.0000000000000000     
  0.46875000000000000        0.0000000000000000        0.0000000000000000     
  0.50000000000000000        0.0000000000000000        0.0000000000000000     
  0.37500000000000000        3.1250000000000000E-002   0.0000000000000000     
  0.40625000000000000        3.1250000000000000E-002   0.0000000000000000     
  0.43750000000000000        3.1250000000000000E-002   0.0000000000000000     
  0.46875000000000000        3.1250000000000000E-002   0.0000000000000000     
  0.50000000000000000        3.1250000000000000E-002   0.0000000000000000     
  0.37500000000000000        6.2500000000000000E-002   0.0000000000000000     
  0.40625000000000000        6.2500000000000000E-002   0.0000000000000000     
  0.43750000000000000        6.2500000000000000E-002   0.0000000000000000     
  0.46875000000000000        6.2500000000000000E-002   0.0000000000000000     
  0.50000000000000000        6.2500000000000000E-002   0.0000000000000000     
  0.37500000000000000        9.3750000000000000E-002   0.0000000000000000     
  0.40625000000000000        9.3750000000000000E-002   0.0000000000000000     
  0.43750000000000000        9.3750000000000000E-002   0.0000000000000000     
  0.46875000000000000        9.3750000000000000E-002   0.0000000000000000     
  0.50000000000000000        9.3750000000000000E-002   0.0000000000000000     
  0.37500000000000000       0.12500000000000000        0.0000000000000000     
  0.40625000000000000       0.12500000000000000        0.0000000000000000     
  0.43750000000000000       0.12500000000000000        0.0000000000000000     
  0.46875000000000000       0.12500000000000000        0.0000000000000000     
  0.50000000000000000       0.12500000000000000        0.0000000000000000     
  0.50000000000000000        0.0000000000000000        0.0000000000000000     
  0.53125000000000000        0.0000000000000000        0.0000000000000000     
  0.56250000000000000        0.0000000000000000        0.0000000000000000     
  0.59375000000000000        0.0000000000000000        0.0000000000000000     
  0.62500000000000000        0.0000000000000000        0.0000000000000000     
  0.50000000000000000        3.1250000000000000E-002   0.0000000000000000     
  0.53125000000000000        3.1250000000000000E-002   0.0000000000000000     
  0.56250000000000000        3.1250000000000000E-002   0.0000000000000000     
  0.59375000000000000        3.1250000000000000E-002   0.0000000000000000     
  0.62500000000000000        3.1250000000000000E-002   0.0000000000000000     
  0.50000000000000000        6.2500000000000000E-002   0.0000000000000000     
  0.53125000000000000        6.2500000000000000E-002   0.0000000000000000     
  0.56250000000000000        6.2500000000000000E-002   0.0000000000000000     
  0.59375000000000000        6.2500000000000000E-002   0.0000000000000000     
  0.62500000000000000        6.2500000000000000E-002   0.0000000000000000     
  0.50000000000000000        9.3750000000000000E-002   0.0000000000000000     
  0.53125000000000000        9.3750000000000000E-002   0.0000000000000000     
  0.56250000000000000        9.3750000000000000E-002   0.0000000000000000     
  0.59375000000000000        9.3750000000000000E-002   0.0000000000000000     
  0.62500000000000000        9.3750000000000000E-002   0.0000000000000000     
  0.50000000000000000       0.12500000000000000        0.0000000000000000     
  0.53125000000000000       0.12500000000000000        0.0000000000000000     
  0.56250000000000000       0.12500000000000000        0.0000000000000000     
[...]
 <PointData>
 <DataArray  type="Float64" Name="disp" NumberOfComponents="3" format="ascii">
   0.0000000000000000        0.0000000000000000        0.0000000000000000     
   6.0959644623033498E-003   3.7906166864860166E-003   0.0000000000000000     
   1.1665941552984713E-002   7.3241843868319442E-003   0.0000000000000000     
   1.6709931272044086E-002   1.0600703101037782E-002   0.0000000000000000     
   2.1227933619481471E-002   1.3620172829103529E-002   0.0000000000000000     
   0.0000000000000000        0.0000000000000000        0.0000000000000000     
   4.8911053492880245E-003   3.0223334531015709E-003   0.0000000000000000     
   9.5735015908998897E-003   6.0608949866158401E-003   0.0000000000000000     
   1.4047188724835600E-002   9.1156846005428054E-003   0.0000000000000000     
   1.8312166751095153E-002   1.2186702294882470E-002   0.0000000000000000     
   0.0000000000000000        0.0000000000000000        0.0000000000000000     
   3.9534982214723124E-003   2.4253045359588776E-003   0.0000000000000000     
   7.9104629305551104E-003   5.0632637436781400E-003   0.0000000000000000     
   1.1870894127248396E-002   7.9138776231577855E-003   0.0000000000000000     
   1.5834791811552163E-002   1.0977146174397814E-002   0.0000000000000000     
   0.0000000000000000        0.0000000000000000        0.0000000000000000     
   3.2831430788562133E-003   1.9995299350579372E-003   0.0000000000000000     
   6.6768255719503707E-003   4.3312906580188432E-003   0.0000000000000000     
   1.0181047479282470E-002   6.9952821688827197E-003   0.0000000000000000     
   1.3795808800852514E-002   9.9915044676495649E-003   0.0000000000000000     
   0.0000000000000000        0.0000000000000000        0.0000000000000000     
   2.8800399214397275E-003   1.7450096503987488E-003   0.0000000000000000     
   5.8725895150856695E-003   3.8649757296379513E-003   0.0000000000000000     
   8.9776487809378261E-003   6.3598982377176087E-003   0.0000000000000000     
   1.2195217718996197E-002   9.2297771746377190E-003   0.0000000000000000     
   2.1227933619481471E-002   1.3620172829103529E-002   0.0000000000000000     
   2.5432812916978461E-002   1.6613247712654568E-002   0.0000000000000000     
   2.9537433486216645E-002   1.9810581893316272E-002   0.0000000000000000     
   3.3541795327196026E-002   2.3212175371088647E-002   0.0000000000000000     
   3.7445898439916608E-002   2.6818028145971687E-002   0.0000000000000000     
   1.8312166751095153E-002   1.2186702294882470E-002   0.0000000000000000     
   2.2406626423793246E-002   1.5342329008242932E-002   0.0000000000000000     
   2.6368758497044575E-002   1.8650945679232291E-002   0.0000000000000000     
   3.0198562970849146E-002   2.2112552307850548E-002   0.0000000000000000     
   3.3896039845206949E-002   2.5727148894097700E-002   0.0000000000000000     
   1.5834791811552163E-002   1.0977146174397814E-002   0.0000000000000000     
   1.9730356289767676E-002   1.4211902389513966E-002   0.0000000000000000     
   2.3485787868196190E-002   1.7576979260621978E-002   0.0000000000000000     
   2.7101086546837704E-002   2.1072376787721850E-002   0.0000000000000000     
   3.0576252325692221E-002   2.4698094970813583E-002   0.0000000000000000     
   1.3795808800852514E-002   9.9915044676495649E-003   0.0000000000000000     
   1.7404002514901769E-002   1.3221967856467674E-002   0.0000000000000000     
   2.0888521599671504E-002   1.6588682637485336E-002   0.0000000000000000     
   2.4249366055161720E-002   2.0091648810702557E-002   0.0000000000000000     
   2.7486535881372415E-002   2.3730866376119326E-002   0.0000000000000000     
   1.2195217718996197E-002   9.2297771746377190E-003   0.0000000000000000     
   1.5427565099195512E-002   1.2372525409104052E-002   0.0000000000000000     
   1.8576959691470510E-002   1.5686055809822363E-002   0.0000000000000000     
   2.1643401495821182E-002   1.9170368376792660E-002   0.0000000000000000     
   2.4626890512247538E-002   2.2825463110014942E-002   0.0000000000000000     
   3.7445898439916608E-002   2.6818028145971687E-002   0.0000000000000000     
   4.1253941341861278E-002   3.0623321519785085E-002   0.0000000000000000     
   4.4970122550512935E-002   3.4623236794348526E-002   0.0000000000000000     
   4.8594442065871594E-002   3.8817773969662003E-002   0.0000000000000000     
   5.2126899887937242E-002   4.3206933045725524E-002   0.0000000000000000     
   3.3896039845206949E-002   2.5727148894097700E-002   0.0000000000000000     
   3.7484272600914179E-002   2.9523477183609953E-002   0.0000000000000000     
   4.0986344718767012E-002   3.3530278922023489E-002   0.0000000000000000     
   4.4402256198765457E-002   3.7747554109338326E-002   0.0000000000000000     
   4.7732007040909491E-002   4.2175302745554463E-002   0.0000000000000000     
   3.0576252325692221E-002   2.4698094970813583E-002   0.0000000000000000     
   3.3940669907362928E-002   2.8498657256152506E-002   0.0000000000000000     
   3.7223723994453013E-002   3.2518587089993965E-002   0.0000000000000000     
   4.0425414586962499E-002   3.6757884472337951E-002   0.0000000000000000     
   4.3545741684891379E-002   4.1216549403184470E-002   0.0000000000000000     
   2.7486535881372415E-002   2.3730866376119326E-002   0.0000000000000000     
   3.0623133261207521E-002   2.7548861737412757E-002   0.0000000000000000     
   3.3682260377570966E-002   3.1588161298259941E-002   0.0000000000000000     
   3.6663917230462757E-002   3.5848765058660859E-002   0.0000000000000000     
   3.9568103819882884E-002   4.0330673018615544E-002   0.0000000000000000     
   2.4626890512247538E-002   2.2825463110014942E-002   0.0000000000000000     
   2.7531662662447970E-002   2.6674090627390692E-002   0.0000000000000000     
   3.0361953868120850E-002   3.0739001546821410E-002   0.0000000000000000     
   3.3117764129266210E-002   3.5020195868307076E-002   0.0000000000000000     
   3.5799093445884007E-002   3.9517673591847699E-002   0.0000000000000000     
   5.2126899887937242E-002   4.3206933045725524E-002   0.0000000000000000     
   5.5565224643574856E-002   4.7795274083533061E-002   0.0000000000000000     
   5.8907144959649410E-002   5.2587357144078584E-002   0.0000000000000000     
   6.2152660836160917E-002   5.7583182227362084E-002   0.0000000000000000     
   6.5301772273109362E-002   6.2782749333383583E-002   0.0000000000000000     
   4.7732007040909491E-002   4.2175302745554463E-002   0.0000000000000000     
   5.0971420235431344E-002   4.6806885186782658E-002   0.0000000000000000     
   5.4116318772563177E-002   5.1635661789133688E-002   0.0000000000000000     
   5.7166702652305015E-002   5.6661632552607540E-002   0.0000000000000000     
   6.0122571874656854E-002   6.1884797477204240E-002   0.0000000000000000     
   4.3545741684891379E-002   4.1216549403184470E-002   0.0000000000000000     
   4.6580211070037868E-002   4.5881838645705622E-002   0.0000000000000000     
   4.9524328524200252E-002   5.0741008963073514E-002   0.0000000000000000     
   5.2378094047378490E-002   5.5794060355288146E-002   0.0000000000000000     
   5.5141507639572609E-002   6.1040992822349524E-002   0.0000000000000000     
   3.9568103819882884E-002   4.0330673018615544E-002   0.0000000000000000     
   4.2391597147394454E-002   4.5020134460301960E-002   0.0000000000000000     
   4.5131174214560615E-002   4.9903398665898081E-002   0.0000000000000000     
   4.7786835021381348E-002   5.4980465635403902E-002   0.0000000000000000     
   5.0358579567856658E-002   6.0251335368819429E-002   0.0000000000000000     
   3.5799093445884007E-002   3.9517673591847699E-002   0.0000000000000000     
   3.8405578467501096E-002   4.4221772630571678E-002   0.0000000000000000     
   4.0936855843644288E-002   4.9122830897607377E-002   0.0000000000000000     
   4.3392925574313575E-002   5.4220848392954803E-002   0.0000000000000000     
   4.5773787659508972E-002   5.9515825116613963E-002   0.0000000000000000     
   6.5301772273109362E-002   6.2782749333383583E-002   0.0000000000000000     
   6.8357702645712823E-002   6.8172950203593624E-002   0.0000000000000000     
   7.1323675329189359E-002   7.3740676579442777E-002   0.0000000000000000     
   7.4199690323538986E-002   7.9485928460931041E-002   0.0000000000000000     
   7.6985747628761703E-002   8.5408705848058417E-002   0.0000000000000000     
   6.0122571874656854E-002   6.1884797477204240E-002   0.0000000000000000     
   6.2988719472470173E-002   6.7296766611121522E-002   0.0000000000000000     
   6.5769938478596468E-002   7.2889150002557107E-002   0.0000000000000000     
   6.8466228893035733E-002   7.8661947651511036E-002   0.0000000000000000     
   7.1077590715787967E-002   8.4615159557983266E-002   0.0000000000000000     
   5.5141507639572609E-002   6.1040992822349524E-002   0.0000000000000000     
   5.7819686293810915E-002   6.6475888356707480E-002   0.0000000000000000     
   6.0417747003121677E-002   7.2092828950811788E-002   0.0000000000000000     
   6.2935689767504910E-002   7.7891814604662504E-002   0.0000000000000000     
   6.5373514586960613E-002   8.3872845318259601E-002   0.0000000000000000     
   5.0358579567856658E-002   6.0251335368819429E-002   0.0000000000000000     
   5.2850603109735037E-002   6.5710315440351469E-002   0.0000000000000000     
   5.5267100902765001E-002   7.1351713424206820E-002   0.0000000000000000     
   5.7608072946946524E-002   7.7175529320385447E-002   0.0000000000000000     
   5.9873519242279641E-002   8.3181763128887448E-002   0.0000000000000000     
   4.5773787659508972E-002   5.9515825116613963E-002   0.0000000000000000     
   4.8081469920242551E-002   6.5000047862053517E-002   0.0000000000000000     
   5.0318000177526419E-002   7.0665803422742174E-002   0.0000000000000000     
   5.2483378431360583E-002   7.6513091798679947E-002   0.0000000000000000     
   5.4577604681745037E-002   8.2541912989866795E-002   0.0000000000000000     
   7.6985747628761703E-002   8.5408705848058417E-002   0.0000000000000000     
   7.9673679799045202E-002   9.1500051911708430E-002   0.0000000000000000     
   8.2255319388577205E-002   9.7751009822764606E-002   0.0000000000000000     
   8.4730666397357726E-002  0.10416157958122695        0.0000000000000000     
   8.7099720825386751E-002  0.11073176118709546        0.0000000000000000     
   7.1077590715787967E-002   8.4615159557983266E-002   0.0000000000000000     
   7.3596602603571620E-002   9.0737554337493032E-002   0.0000000000000000     
   7.6015843213105158E-002   9.7017900605559579E-002   0.0000000000000000     
   7.8335312544388580E-002  0.10345619836218287        0.0000000000000000     
   8.0555010597421886E-002  0.11005244760736294        0.0000000000000000     
   6.5373514586960613E-002   8.3872845318259601E-002   0.0000000000000000     
   6.7724710003572691E-002   9.0023378736270282E-002   0.0000000000000000     
   6.9982764559425106E-002   9.6330872503361684E-002   0.0000000000000000     
   7.2147678254517816E-002  0.10279532661953387        0.0000000000000000     
   7.4219451088850835E-002  0.10941674108478683        0.0000000000000000     
   5.9873519242279641E-002   8.3181763128887448E-002   0.0000000000000000     
   6.2058001999048429E-002   8.9357525108040167E-002   0.0000000000000000     
   6.4156083427537022E-002   9.5689925516171004E-002   0.0000000000000000     
   6.6167763527745393E-002  0.10217896435328003        0.0000000000000000     
   6.8093042299673570E-002  0.10882464161936720        0.0000000000000000     
   5.4577604681745037E-002   8.2541912989866795E-002   0.0000000000000000     
   5.6596478589998805E-002   8.8739993452802673E-002   0.0000000000000000     
   5.8535799817440906E-002   9.5095059643987512E-002   0.0000000000000000     
   6.0395568364071346E-002  0.10160711156342127        0.0000000000000000     
   6.2175784229890119E-002  0.10827614921110400        0.0000000000000000     
   8.7099720825386751E-002  0.11073176118709546        0.0000000000000000     
   8.9376062296197156E-002  0.11744783313718092        0.0000000000000000     
   9.1573270433321752E-002  0.12429607392829414        0.0000000000000000     
   9.3691345236760551E-002  0.13127648356043509        0.0000000000000000     
   9.5730286706513582E-002  0.13838906203360377        0.0000000000000000     
   8.0555010597421886E-002  0.11005244760736294        0.0000000000000000     
   8.2686124718447801E-002  0.11679435594852619        0.0000000000000000     
   8.4739842253709091E-002  0.12366963099309908        0.0000000000000000     
   8.6716163203205743E-002  0.13067827274108160        0.0000000000000000     
   8.8615087566937756E-002  0.13782028119247372        0.0000000000000000     
   7.4219451088850835E-002  0.10941674108478683        0.0000000000000000     
   7.6207573561144493E-002  0.11618369021539622        0.0000000000000000     
   7.8121536170119132E-002  0.12308474832763767        0.0000000000000000     
   7.9961338915774824E-002  0.13011991542151122        0.0000000000000000     
   8.1726981798111470E-002  0.13728919149701688        0.0000000000000000     
   6.8093042299673570E-002  0.10882464161936720        0.0000000000000000     
   6.9940408824287190E-002  0.11561583593779101        0.0000000000000000     
   7.1718352182551931E-002  0.12254142593190996        0.0000000000000000     
   7.3426872374467780E-002  0.12960141160172406        0.0000000000000000     
   7.5065969400034752E-002  0.13679579294723329        0.0000000000000000     
   6.2175784229890119E-002  0.10827614921110400        0.0000000000000000     
   6.3884630507875920E-002  0.11509079311571058        0.0000000000000000     
   6.5530290291007431E-002  0.12203966380591592        0.0000000000000000     
   6.7112763579284640E-002  0.12912276128172001        0.0000000000000000     
   6.8632050372707559E-002  0.13634008554312294        0.0000000000000000     
   9.5730286706513582E-002  0.13838906203360377        0.0000000000000000     
   9.7675068318169689E-002  0.14562375338348782        0.0000000000000000     
   9.9510663547317718E-002  0.15297050164577491        0.0000000000000000     
  0.10123707239395771       0.16042930682046500        0.0000000000000000     
  0.10285429485808963       0.16800016890755809        0.0000000000000000     
   8.8615087566937756E-002  0.13782028119247372        0.0000000000000000     
   9.0423455517259915E-002  0.14508387040751952        0.0000000000000000     
   9.2128107226527048E-002  0.15245725444646302        0.0000000000000000     
   9.3729042694739126E-002  0.15994043330930424        0.0000000000000000     
   9.5226261921896149E-002  0.16753340699604319        0.0000000000000000     
   8.1726981798111470E-002  0.13728919149701688        0.0000000000000000     
   8.3406589723737920E-002  0.14457977377875558        0.0000000000000000     
   8.4988287599262954E-002  0.15197885949132825        0.0000000000000000     
   8.6472075424686573E-002  0.15948644863473493        0.0000000000000000     
   8.7857953200008776E-002  0.16710254120897561        0.0000000000000000     
   7.5065969400034752E-002  0.13679579294723329        0.0000000000000000     
   7.6624470937603661E-002  0.14411146349719603        0.0000000000000000     
   7.8091204665525452E-002  0.15153531678037058        0.0000000000000000     
   7.9466170583800066E-002  0.15906735279675704        0.0000000000000000     
   8.0749368692427548E-002  0.16670757154635540        0.0000000000000000     
   6.8632050372707559E-002  0.13634008554312294        0.0000000000000000     
   7.0077099158857181E-002  0.14367893956284086        0.0000000000000000     
   7.1436858425314539E-002  0.15112662631359011        0.0000000000000000     
   7.2711328172079620E-002  0.15868314579537063        0.0000000000000000     
   7.3900508399152409E-002  0.16634849800818252        0.0000000000000000     
   0.0000000000000000        0.0000000000000000        0.0000000000000000     
   2.8800399214397275E-003   1.7450096503987488E-003   0.0000000000000000     
   5.8725895150856695E-003   3.8649757296379513E-003   0.0000000000000000     
   8.9776487809378261E-003   6.3598982377176087E-003   0.0000000000000000     
   1.2195217718996197E-002   9.2297771746377190E-003   0.0000000000000000     
   0.0000000000000000        0.0000000000000000        0.0000000000000000     
   2.6103299950690963E-003   1.5890820813118183E-003   0.0000000000000000     
   5.2897468808577545E-003   3.5570031664622337E-003   0.0000000000000000     
   8.0382506573659761E-003   5.9037632554512463E-003   0.0000000000000000     
   1.0855841324593761E-002   8.6293623482788552E-003   0.0000000000000000     
   0.0000000000000000        0.0000000000000000        0.0000000000000000     
   2.3401545455905585E-003   1.4590856271276510E-003   0.0000000000000000     
   4.7202897901633695E-003   3.3000571764184592E-003   0.0000000000000000     
   7.1404057337184348E-003   5.5229146478724253E-003   0.0000000000000000     
   9.6005023762557509E-003   8.1276580414895473E-003   0.0000000000000000     
   0.0000000000000000        0.0000000000000000        0.0000000000000000     
   2.0695135730041153E-003   1.3550202878462466E-003   0.0000000000000000     
   4.1642182430025156E-003   3.0941377595066289E-003   0.0000000000000000     
   6.2841140099952003E-003   5.2173524149811456E-003   0.0000000000000000     
   8.4292008739821709E-003   7.7246642542697988E-003   0.0000000000000000     
   0.0000000000000000        0.0000000000000000        0.0000000000000000     
   1.7984070773097664E-003   1.2768860634676054E-003   0.0000000000000000     
   3.6215322393751913E-003   2.9392449157267415E-003   0.0000000000000000     
   5.4693754861962762E-003   4.9870765567774098E-003   0.0000000000000000     
   7.3419368177730180E-003   7.4203809866196079E-003   0.0000000000000000     
   1.2195217718996197E-002   9.2297771746377190E-003   0.0000000000000000     
   1.5427565099195512E-002   1.2372525409104052E-002   0.0000000000000000     
   1.8576959691470510E-002   1.5686055809822363E-002   0.0000000000000000     
   2.1643401495821182E-002   1.9170368376792660E-002   0.0000000000000000     
   2.4626890512247538E-002   2.2825463110014942E-002   0.0000000000000000     
   1.0855841324593761E-002   8.6293623482788552E-003   0.0000000000000000     
   1.3689206047252005E-002   1.1651515781790500E-002   0.0000000000000000     
   1.6485031990051611E-002   1.4887938892831614E-002   0.0000000000000000     
   1.9243319152992575E-002   1.8338631681402200E-002   0.0000000000000000     
   2.1964067536074904E-002   2.2003594147502258E-002   0.0000000000000000     
   9.6005023762557509E-003   8.1276580414895473E-003   0.0000000000000000     
   1.2077087363674336E-002   1.1046879708894423E-002   0.0000000000000000     
   1.4546668341873207E-002   1.4213172001711643E-002   0.0000000000000000     
   1.7009245310852360E-002   1.7626534919941199E-002   0.0000000000000000     
   1.9464818270611799E-002   2.1286968463583106E-002   0.0000000000000000     
   8.4292008739821709E-003   7.7246642542697988E-003   0.0000000000000000     
   1.0591209048462509E-002   1.0558617190415821E-002   0.0000000000000000     
   1.2761868746935301E-002   1.3661755136462441E-002   0.0000000000000000     
   1.4941179969400541E-002   1.7034078092409664E-002   0.0000000000000000     
   1.7129142715858237E-002   2.0675586058257488E-002   0.0000000000000000     
   7.3419368177730180E-003   7.4203809866196079E-003   0.0000000000000000     
   9.2315711016165217E-003   1.0186728226354694E-002   0.0000000000000000     
   1.1130633205237888E-002   1.3233688297084023E-002   0.0000000000000000     
   1.3039123128637120E-002   1.6561261198807596E-002   0.0000000000000000     
   1.4957040871814212E-002   2.0169446931525409E-002   0.0000000000000000     
   2.4626890512247538E-002   2.2825463110014942E-002   0.0000000000000000     
   2.7531662662447970E-002   2.6674090627390692E-002   0.0000000000000000     