 <VTKFile type="UnstructuredGrid"  version="0.1"   >
 <UnstructuredGrid>
 <Piece  NumberOfPoints="          1600 "  NumberOfCells="         1024 ">
 <Points>
 <DataArray  type="Float64" NumberOfComponents="3"  format="ascii" >
   0.0000000000000000        0.0000000000000000        0.0000000000000000     
   3.1250000000000000E-002   0.0000000000000000        0.0000000000000000     
   6.2500000000000000E-002   0.0000000000000000        0.0000000000000000     
   9.3750000000000000E-002   0.0000000000000000        0.0000000000000000     
  0.12500000000000000        0.0000000000000000        0.0000000000000000     
   0.0000000000000000        3.1250000000000000E-002   0.0000000000000000     
   3.1250000000000000E-002   3.1250000000000000E-002   0.0000000000000000     
   6.2500000000000000E-002   3.1250000000000000E-002   0.0000000000000000     
   9.3750000000000000E-002   3.1250000000000000E-002   0.0000000000000000     
  0.12500000000000000        3.1250000000000000E-002   0.0000000000000000     
   0.0000000000000000        6.2500000000000000E-002   0.0000000000000000     
   3.1250000000000000E-002   6.2500000000000000E-002   0.0000000000000000     
   6.2500000000000000E-002   6.2500000000000000E-002   0.0000000000000000     
   9.3750000000000000E-002   6.2500000000000000E-002   0.0000000000000000     
  0.12500000000000000        6.2500000000000000E-002   0.0000000000000000     
   0.0000000000000000        9.3750000000000000E-002   0.0000000000000000     
   3.1250000000000000E-002   9.3750000000000000E-002   0.0000000000000000     
   6.2500000000000000E-002   9.3750000000000000E-002   0.0000000000000000     
   9.3750000000000000E-002   9.3750000000000000E-002   0.0000000000000000     
  0.12500000000000000        9.3750000000000000E-002   0.0000000000000000     
   0.0000000000000000       0.12500000000000000        0.0000000000000000     
   3.1250000000000000E-002  0.12500000000000000        0.0000000000000000     
   6.2500000000000000E-002  0.12500000000000000        0.0000000000000000     
   9.3750000000000000E-002  0.12500000000000000        0.0000000000000000     
  0.12500000000000000       0.12500000000000000        0.0000000000000000     
  0.12500000000000000        0.0000000000000000        0.0000000000000000     
  0.15625000000000000        0.0000000000000000        0.0000000000000000     
  0.18750000000000000        0.0000000000000000        0.0000000000000000     
  0.21875000000000000        0.0000000000000000        0.0000000000000000     
  0.25000000000000000        0.0000000000000000        0.0000000000000000     
  0.12500000000000000        3.1250000000000000E-002   0.0000000000000000     
  0.15625000000000000        3.1250000000000000E-002   0.0000000000000000     
  0.18750000000000000        3.1250000000000000E-002   0.0000000000000000     
  0.21875000000000000        3.1250000000000000E-002   0.0000000000000000     
  0.25000000000000000        3.1250000000000000E-002   0.0000000000000000     
  0.12500000000000000        6.2500000000000000E-002   0.0000000000000000     
  0.15625000000000000        6.2500000000000000E-002   0.0000000000000000     
  0.18750000000000000        6.2500000000000000E-002   0.0000000000000000     
  0.21875000000000000        6.2500000000000000E-002   0.0000000000000000     
  0.25000000000000000        6.2500000000000000E-002   0.0000000000000000     
  0.12500000000000000        9.3750000000000000E-002   0.0000000000000000     
  0.15625000000000000        9.3750000000000000E-002   0.0000000000000000     
  0.18750000000000000        9.3750000000000000E-002   0.0000000000000000     
  0.21875000000000000        9.3750000000000000E-002   0.0000000000000000     
  0.25000000000000000        9.3750000000000000E-002   0.0000000000000000     
  0.12500000000000000       0.12500000000000000        0.0000000000000000     
  0.15625000000000000       0.12500000000000000        0.0000000000000000     
  0.18750000000000000       0.12500000000000000        0.0000000000000000     
  0.21875000000000000       0.12500000000000000        0.0000000000000000     
  0.25000000000000000       0.12500000000000000        0.0000000000000000     
  0.25000000000000000        0.0000000000000000        0.0000000000000000     
  0.28125000000000000        0.0000000000000000        0.0000000000000000     
  0.31250000000000000        0.0000000000000000        0.0000000000000000     
  0.34375000000000000        0.0000000000000000        0.0000000000000000     
  0.37500000000000000        0.0000000000000000        0.0000000000000000     
  0.25000000000000000        3.1250000000000000E-002   0.0000000000000000     
  0.28125000000000000        3.1250000000000000E-002   0.0000000000000000     
  0.31250000000000000        3.1250000000000000E-002   0.0000000000000000     
  0.34375000000000000        3.1250000000000000E-002   0.0000000000000000     
  0.37500000000000000        3.1250000000000000E-002   0.0000000000000000     
  0.25000000000000000        6.2500000000000000E-002   0.0000000000000000     
  0.28125000000000000        6.2500000000000000E-002   0.0000000000000000     
  0.31250000000000000        6.2500000000000000E-002   0.0000000000000000     
  0.34375000000000000        6.2500000000000000E-002   0.0000000000000000     
  0.37500000000000000        6.2500000000000000E-002   0.0000000000000000     
  0.25000000000000000        9.3750000000000000E-002   0.0000000000000000     
  0.28125000000000000        9.3750000000000000E-002   0.0000000000000000     
  0.31250000000000000        9.3750000000000000E-002   0.0000000000000000     
  0.34375000000000000        9.3750000000000000E-002   0.0000000000000000     
  0.37500000000000000        9.3750000000000000E-002   0.0000000000000000     
  0.25000000000000000       0.12500000000000000        0.0000000000000000     
  0.28125000000000000       0.12500000000000000        0.0000000000000000     
  0.31250000000000000       0.12500000000000000        0.0000000000000000     
  0.34375000000000000       0.12500000000000000        0.0000000000000000     
  0.37500000000000000       0.12500000000000000        0.0000000000000000     
  0.37500000000000000        0.0000000000000000        0.0000000000000000     
  0.40625000000000000        0.0000000000000000        0.0000000000000000     
  0.43750000000000000        0.0000000000000000        0.0000000000000000     
  0.46875000000000000        0.0000000000000000        0.0000000000000000     
  0.50000000000000000        0.0000000000000000        0.0000000000000000     
  0.37500000000000000        3.1250000000000000E-002   0.0000000000000000     
  0.40625000000000000        3.1250000000000000E-002   0.0000000000000000     
  0.43750000000000000        3.1250000000000000E-002   0.0000000000000000     
  0.46875000000000000        3.1250000000000000E-002   0.0000000000000000     
  0.50000000000000000        3.1250000000000000E-002   0.0000000000000000     
  0.37500000000000000        6.2500000000000000E-002   0.0000000000000000     
  0.40625000000000000        6.2500000000000000E-002   0.0000000000000000     
  0.43750000000000000        6.2500000000000000E-002   0.0000000000000000     
  0.46875000000000000        6.2500000000000000E-002   0.0000000000000000     
  0.50000000000000000        6.2500000000000000E-002   0.0000000000000000     
  0.37500000000000000        9.3750000000000000E-002   0.0000000000000000     
  0.40625000000000000        9.3750000000000000E-002   0.0000000000000000     
  0.43750000000000000        9.3750000000000000E-002   0.0000000000000000     
  0.46875000000000000        9.3750000000000000E-002   0.0000000000000000     
  0.50000000000000000        9.3750000000000000E-002   0.0000000000000000     
  0.37500000000000000       0.12500000000000000        0.0000000000000000     
  0.40625000000000000       0.12500000000000000        0.0000000000000000     
  0.43750000000000000       0.12500000000000000        0.0000000000000000     
  0.46875000000000000       0.12500000000000000        0.0000000000000000     
  0.50000000000000000       0.12500000000000000        0.0000000000000000     
  0.50000000000000000        0.0000000000000000        0.0000000000000000     
  0.53125000000000000        0.0000000000000000        0.0000000000000000     
  0.56250000000000000        0.0000000000000000        0.0000000000000000     
  0.59375000000000000        0.0000000000000000        0.0000000000000000     
  0.62500000000000000        0.0000000000000000        0.0000000000000000     
  0.50000000000000000        3.1250000000000000E-002   0.0000000000000000     
  0.53125000000000000        3.1250000000000000E-002   0.0000000000000000     
  0.56250000000000000        3.1250000000000000E-002   0.0000000000000000     
  0.59375000000000000        3.1250000000000000E-002   0.0000000000000000     
  0.62500000000000000        3.1250000000000000E-002   0.0000000000000000     
  0.50000000000000000        6.2500000000000000E-002   0.0000000000000000     
  0.53125000000000000        6.2500000000000000E-002   0.0000000000000000     
  0.56250000000000000        6.2500000000000000E-002   0.0000000000000000     
  0.59375000000000000        6.2500000000000000E-002   0.0000000000000000     
  0.62500000000000000        6.2500000000000000E-002   0.0000000000000000     
  0.50000000000000000        9.3750000000000000E-002   0.0000000000000000     
  0.53125000000000000        9.3750000000000000E-002   0.0000000000000000     
  0.56250000000000000        9.3750000000000000E-002   0.0000000000000000     
  0.59375000000000000        9.3750000000000000E-002   0.0000000000000000     
  0.62500000000000000        9.3750000000000000E-002   0.0000000000000000     
  0.50000000000000000       0.12500000000000000        0.0000000000000000     
  0.53125000000000000       0.12500000000000000        0.0000000000000000     
  0.56250000000000000       0.12500000000000000        0.0000000000000000     
[...]
 <PointData>
 <DataArray  type="Float64" Name="disp" NumberOfComponents="3" format="ascii">
   0.0000000000000000        0.0000000000000000        0.0000000000000000     
   6.1023605146533358E-003   3.7473641249664838E-003   0.0000000000000000     
   1.1697397475220708E-002   7.2400098356093893E-003   0.0000000000000000     
   1.6785110881702113E-002   1.0477937131928718E-002   0.0000000000000000     
   2.1365500734097556E-002   1.3461146013924468E-002   0.0000000000000000     
   0.0000000000000000        0.0000000000000000        0.0000000000000000     
   4.9109701101581506E-003   2.9737919043397575E-003   0.0000000000000000     
   9.6256269034263788E-003   5.9651104941880057E-003   0.0000000000000000     
   1.4143970379804685E-002   8.9739557695447461E-003   0.0000000000000000     
   1.8466000539293068E-002   1.2000327730409975E-002   0.0000000000000000     
   0.0000000000000000        0.0000000000000000        0.0000000000000000     
   3.9792374781031908E-003   2.3730807468315736E-003   0.0000000000000000     
   7.9688550040132502E-003   4.9598891221243890E-003   0.0000000000000000     
   1.1968852577730182E-002   7.7604251258784470E-003   0.0000000000000000     
   1.5979230199253978E-002   1.0774688758093747E-002   0.0000000000000000     
   0.0000000000000000        0.0000000000000000        0.0000000000000000     
   3.3071626184884577E-003   1.9452306524419321E-003   0.0000000000000000     
   6.7270817769813241E-003   4.2243457194185404E-003   0.0000000000000000     
   1.0259757475478599E-002   6.8373452009298230E-003   0.0000000000000000     
   1.3905189713980281E-002   9.7842290969757800E-003   0.0000000000000000     
   0.0000000000000000        0.0000000000000000        0.0000000000000000     
   2.8947455313139510E-003   1.6902416211708338E-003   0.0000000000000000     
   5.9003072223305988E-003   3.7584802860704579E-003   0.0000000000000000     
   9.0166850730499411E-003   6.2047159946988723E-003   0.0000000000000000     
   1.2243879083471982E-002   9.0289487470560752E-003   0.0000000000000000     
   2.1365500734097556E-002   1.3461146013924468E-002   0.0000000000000000     
   2.5652494235378378E-002   1.6418288789882430E-002   0.0000000000000000     
   2.9860018588515922E-002   1.9578017768088395E-002   0.0000000000000000     
   3.3988073793510189E-002   2.2940332948542353E-002   0.0000000000000000     
   3.8036659850361178E-002   2.6505234331244319E-002   0.0000000000000000     
   1.8466000539293068E-002   1.2000327730409975E-002   0.0000000000000000     
   2.2632857080283088E-002   1.5112298992926624E-002   0.0000000000000000     
   2.6685679701166289E-002   1.8377942173237606E-002   0.0000000000000000     
   3.0624468401942679E-002   2.1797257271342931E-002   0.0000000000000000     
   3.4449223182612253E-002   2.5370244287242594E-002   0.0000000000000000     
   1.5979230199253978E-002   1.0774688758093747E-002   0.0000000000000000     
   1.9931742674034508E-002   1.3962236967315472E-002   0.0000000000000000     
   2.3758144807521628E-002   1.7282626702088806E-002   0.0000000000000000     
   2.7458436599715343E-002   2.0735857962413746E-002   0.0000000000000000     
   3.1032618050615642E-002   2.4321930748290296E-002   0.0000000000000000     
   1.3905189713980281E-002   9.7842290969757800E-003   0.0000000000000000     
   1.7549151016632639E-002   1.2968102713048981E-002   0.0000000000000000     
   2.1077413907581943E-002   1.6292071354641988E-002   0.0000000000000000     
   2.4489978386828183E-002   1.9756135021754797E-002   0.0000000000000000     
   2.7786844454371368E-002   2.3360293714387418E-002   0.0000000000000000     
   1.2243879083471982E-002   9.0289487470560752E-003   0.0000000000000000     
   1.5485082108077487E-002   1.2129896230127144E-002   0.0000000000000000     
   1.8643487001347228E-002   1.5406276130897147E-002   0.0000000000000000     
   2.1719093763281200E-002   1.8858088449366085E-002   0.0000000000000000     
   2.4711902393879409E-002   2.2485333185533959E-002   0.0000000000000000     
   3.8036659850361178E-002   2.6505234331244319E-002   0.0000000000000000     
   4.2042837844633058E-002   3.0299478563412672E-002   0.0000000000000000     
   4.6043668861889972E-002   3.4349822292265804E-002   0.0000000000000000     
   5.0039152902131928E-002   3.8656265517803719E-002   0.0000000000000000     
   5.4029289965358933E-002   4.3218808240026413E-002   0.0000000000000000     
   3.4449223182612253E-002   2.5370244287242594E-002   0.0000000000000000     
   3.8201497486390852E-002   2.9148774459796422E-002   0.0000000000000000     
   4.1922844756494333E-002   3.3184719027864233E-002   0.0000000000000000     
   4.5613264992922682E-002   3.7478077991446042E-002   0.0000000000000000     
   4.9272758195675906E-002   4.2028851350541831E-002   0.0000000000000000     
   3.1032618050615642E-002   2.4321930748290296E-002   0.0000000000000000     
   3.4517409814588139E-002   2.8102150224079608E-002   0.0000000000000000     
   3.7949532545998400E-002   3.2137821554142847E-002   0.0000000000000000     
   4.1328986244846447E-002   3.6428944738479997E-002   0.0000000000000000     
   4.4655770911132278E-002   4.0975519777091081E-002   0.0000000000000000     
   2.7786844454371368E-002   2.3360293714387418E-002   0.0000000000000000     
   3.0990574829224900E-002   2.7159605856262224E-002   0.0000000000000000     
   3.4123732230402194E-002   3.1209129871101617E-002   0.0000000000000000     
   3.7186316657903250E-002   3.5508865758905592E-002   0.0000000000000000     
   4.0178328111728057E-002   4.0058813519674143E-002   0.0000000000000000     
   2.4711902393879409E-002   2.2485333185533959E-002   0.0000000000000000     
   2.7620992530301144E-002   2.6321141356344280E-002   0.0000000000000000     
   3.0445443809705704E-002   3.0398643978740571E-002   0.0000000000000000     
   3.3185256232093070E-002   3.4717841052722825E-002   0.0000000000000000     
   3.5840429797463255E-002   3.9278732578291037E-002   0.0000000000000000     
   5.4029289965358933E-002   4.3218808240026413E-002   0.0000000000000000     
   5.7980375557030193E-002   4.8076733842803990E-002   0.0000000000000000     
   6.1858705182604903E-002   5.3269325710006581E-002   0.0000000000000000     
   6.5664278842083063E-002   5.8796583841634179E-002   0.0000000000000000     
   6.9397096535464692E-002   6.4658508237686790E-002   0.0000000000000000     
   4.9272758195675906E-002   4.2028851350541831E-002   0.0000000000000000     
   5.2901398036566079E-002   4.6888752190681185E-002   0.0000000000000000     
   5.6499258187405331E-002   5.2109493597393669E-002   0.0000000000000000     
   6.0066338648193648E-002   5.7691075570679290E-002   0.0000000000000000     
   6.3602639418931031E-002   6.3633498110538034E-002   0.0000000000000000     
   4.4655770911132278E-002   4.0975519777091081E-002   0.0000000000000000     
   4.7950299175449622E-002   4.5834611269137251E-002   0.0000000000000000     
   5.1232983668392240E-002   5.1063283813779711E-002   0.0000000000000000     
   5.4503824389960161E-002   5.6661537411018460E-002   0.0000000000000000     
   5.7762821340153328E-002   6.2629372060853505E-002   0.0000000000000000     
   4.0178328111728057E-002   4.0058813519674143E-002   0.0000000000000000     
   4.3127078973680795E-002   4.4914311078172217E-002   0.0000000000000000     
   4.6059881625565631E-002   5.0130696359164742E-002   0.0000000000000000     
   4.8976736067382551E-002   5.5707969362651731E-002   0.0000000000000000     
   5.1877642299131575E-002   6.1646130088633164E-002   0.0000000000000000     
   3.5840429797463255E-002   3.9278732578291037E-002   0.0000000000000000     
   3.8431737431259605E-002   4.4127851617786068E-002   0.0000000000000000     
   4.0979952058925476E-002   4.9311731233548740E-002   0.0000000000000000     
   4.3485073680460860E-002   5.4830371425579075E-002   0.0000000000000000     
   4.5947102295865752E-002   6.0683772193877050E-002   0.0000000000000000     
   6.9397096535464692E-002   6.4658508237686790E-002   0.0000000000000000     
   7.3045196712461374E-002   7.0822045252083035E-002   0.0000000000000000     
   7.6596617822784763E-002   7.7254141238741553E-002   0.0000000000000000     
   8.0051359866434829E-002   8.3954796197662329E-002   0.0000000000000000     
   8.3409422843411574E-002   9.0924010128845378E-002   0.0000000000000000     
   6.3602639418931031E-002   6.3633498110538034E-002   0.0000000000000000     
   6.7092603392273076E-002   6.9889207726648764E-002   0.0000000000000000     
   7.0520673460875358E-002   7.6410650928690343E-002   0.0000000000000000     
   7.3886849624737891E-002   8.3197827716662731E-002   0.0000000000000000     
   7.7191131883860675E-002   9.0250738090565955E-002   0.0000000000000000     
   5.7762821340153328E-002   6.2629372060853505E-002   0.0000000000000000     
   6.0998104114798821E-002   6.8914076769698476E-002   0.0000000000000000     
   6.4197802309723662E-002   7.5462940543967044E-002   0.0000000000000000     
   6.7361915924927851E-002   8.2275963383659209E-002   0.0000000000000000     
   7.0490444960411403E-002   8.9353145288774971E-002   0.0000000000000000     
   5.1877642299131575E-002   6.1646130088633164E-002   0.0000000000000000     
   5.4761698880038623E-002   6.7896652381232117E-002   0.0000000000000000     
   5.7628004369329681E-002   7.4411010084571655E-002   0.0000000000000000     
   6.0476558767004716E-002   8.1189203198651735E-002   0.0000000000000000     
   6.3307362073063755E-002   8.8231231723472428E-002   0.0000000000000000     
   4.5947102295865752E-002   6.0683772193877050E-002   0.0000000000000000     
   4.8383387687992496E-002   6.6836934561249742E-002   0.0000000000000000     
   5.0811279639693403E-002   7.3254859550504162E-002   0.0000000000000000     
   5.3230778150968480E-002   7.9937547161640352E-002   0.0000000000000000     
   5.5641883221817720E-002   8.6884997394658298E-002   0.0000000000000000     
   8.3409422843411574E-002   9.0924010128845378E-002   0.0000000000000000     
   8.6675389508405726E-002   9.8116577384251946E-002   0.0000000000000000     
   8.9853842616108015E-002  0.10548729231584329        0.0000000000000000     
   9.2944782166518441E-002  0.11303615492361939        0.0000000000000000     
   9.5948208159637005E-002  0.12076316520758026        0.0000000000000000     
   7.7191131883860675E-002   9.0250738090565955E-002   0.0000000000000000     
   8.0411362409518336E-002   9.7527938588262461E-002   0.0000000000000000     
   8.3525383372985429E-002  0.10498798574761466        0.0000000000000000     
   8.6533194774261996E-002  0.11263087956862258        0.0000000000000000     
   8.9434796613347994E-002  0.12045662005128623        0.0000000000000000     
   7.0490444960411403E-002   8.9353145288774971E-002   0.0000000000000000     
   7.3544587893226682E-002   9.6655741800264650E-002   0.0000000000000000     
   7.6485543200426095E-002  0.10414500845907856        0.0000000000000000     
   7.9313310882009616E-002  0.11182094526521669        0.0000000000000000     
   8.2027890937977271E-002  0.11968355221867905        0.0000000000000000     
   6.3307362073063755E-002   8.8231231723472428E-002   0.0000000000000000     
   6.6075065959530860E-002   9.5499987020258539E-002   0.0000000000000000     
   6.8734322098430070E-002  0.10295836045023495        0.0000000000000000     
   7.1285130489761386E-002  0.11060635201340172        0.0000000000000000     
   7.3727491133524808E-002  0.11844396170975881        0.0000000000000000     
   5.5641883221817720E-002   8.6884997394658298E-002   0.0000000000000000     
   5.8002796608430787E-002   9.4060674248244089E-002   0.0000000000000000     
   6.0271720066997284E-002  0.10142804172108388        0.0000000000000000     
   6.2448653597517209E-002  0.10898709981317765        0.0000000000000000     
   6.4533597199990592E-002  0.11673784852452541        0.0000000000000000     
   9.5948208159637005E-002  0.12076316520758026        0.0000000000000000     
   9.8818022717856252E-002  0.12868837819846740        0.0000000000000000     
  0.10150812796356873       0.13683184892702227        0.0000000000000000     
  0.10401852389677443       0.14519357739324487        0.0000000000000000     
  0.10634921051747340       0.15377356359713520        0.0000000000000000     
   8.9434796613347994E-002  0.12045662005128623        0.0000000000000000     
   9.2213042275905571E-002  0.12849594106415144        0.0000000000000000     
   9.4850785147596775E-002  0.13677957647576411        0.0000000000000000     
   9.7348025228421620E-002  0.14530752628612426        0.0000000000000000     
   9.9704762518380091E-002  0.15407979049523185        0.0000000000000000     
   8.2027890937977271E-002  0.11968355221867905        0.0000000000000000     
   8.4630422321636714E-002  0.12776533249045241        0.0000000000000000     
   8.7122043986295611E-002  0.13609878925152349        0.0000000000000000     
   8.9502755931954003E-002  0.14468392250189238        0.0000000000000000     
   9.1772558158611836E-002  0.15352073224155896        0.0000000000000000     
   7.3727491133524808E-002  0.11844396170975881        0.0000000000000000     
   7.6070162855049639E-002  0.12649655247737035        0.0000000000000000     
   7.8321904479665236E-002  0.13478948725430048        0.0000000000000000     
   8.0482716007371544E-002  0.14332276604054922        0.0000000000000000     
   8.2552597438168618E-002  0.15209638883611662        0.0000000000000000     
   6.4533597199990592E-002  0.11673784852452541        0.0000000000000000     
   6.6532263876144401E-002  0.12468960102490517        0.0000000000000000     
   6.8450366627705664E-002  0.13285167048409499        0.0000000000000000     
   7.0287905454674338E-002  0.14122405690209486        0.0000000000000000     
   7.2044880357050450E-002  0.14980676027890477        0.0000000000000000     
  0.10634921051747340       0.15377356359713520        0.0000000000000000     
  0.10850802390209746       0.16246917530303495        0.0000000000000000     
  0.11050280012707851       0.17117778027528582        0.0000000000000000     
  0.11233353919241658       0.17989937851388782        0.0000000000000000     
  0.11400024109811159       0.18863397001884091        0.0000000000000000     
   9.9704762518380091E-002  0.15407979049523185        0.0000000000000000     
  0.10190426430857480       0.16295340278301479        0.0000000000000000     
  0.10392979789010831       0.17178539682940100        0.0000000000000000     
  0.10578136326298063       0.18057577263439048        0.0000000000000000     
  0.10745896042719175       0.18932453019798320        0.0000000000000000     
   9.1772558158611836E-002  0.15352073224155896        0.0000000000000000     
   9.3902647894283639E-002  0.16246015372223169        0.0000000000000000     
   9.5864222366983901E-002  0.17135312219561891        0.0000000000000000     
   9.7657281576712607E-002  0.18019963766172059        0.0000000000000000     
   9.9281825523469716E-002  0.18899970012053674        0.0000000000000000     
   8.2552597438168618E-002  0.15209638883611662        0.0000000000000000     
   8.4503174659223995E-002  0.16098942812068567        0.0000000000000000     
   8.6306073557705296E-002  0.16988095637393955        0.0000000000000000     
   8.7961294133612464E-002  0.17877097359587810        0.0000000000000000     
   8.9468836386945555E-002  0.18765947978650147        0.0000000000000000     
   7.2044880357050450E-002  0.14980676027890477        0.0000000000000000     
   7.3705844603395868E-002  0.15854122597837675        0.0000000000000000     
   7.5255351462272468E-002  0.16736889936436283        0.0000000000000000     
   7.6693400933680253E-002  0.17628978043686305        0.0000000000000000     
   7.8019993017619207E-002  0.18530386919587738        0.0000000000000000     
   0.0000000000000000        0.0000000000000000        0.0000000000000000     
   2.8947455313139510E-003   1.6902416211708338E-003   0.0000000000000000     
   5.9003072223305988E-003   3.7584802860704579E-003   0.0000000000000000     
   9.0166850730499411E-003   6.2047159946988723E-003   0.0000000000000000     
   1.2243879083471982E-002   9.0289487470560752E-003   0.0000000000000000     
   0.0000000000000000        0.0000000000000000        0.0000000000000000     
   2.6126099911470001E-003   1.5368396995099087E-003   0.0000000000000000     
   5.2893448668916015E-003   3.4570588659514180E-003   0.0000000000000000     
   8.0302046272338057E-003   5.7606574993245285E-003   0.0000000000000000     
   1.0835189272173610E-002   8.4476355996292406E-003   0.0000000000000000     
   0.0000000000000000        0.0000000000000000        0.0000000000000000     
   2.3313797725549347E-003   1.4137509339507866E-003   0.0000000000000000     
   4.6950082374948637E-003   3.2148475029326945E-003   0.0000000000000000     
   7.0908853948197853E-003   5.4032897069457245E-003   0.0000000000000000     
   9.5190112445297011E-003   7.9790775459898742E-003   0.0000000000000000     
   0.0000000000000000        0.0000000000000000        0.0000000000000000     
   2.0510548755377556E-003   1.3209753244934675E-003   0.0000000000000000     
   4.1172973341403836E-003   3.0318461970142872E-003   0.0000000000000000     
   6.1987273758078833E-003   5.1326126175624586E-003   0.0000000000000000     
   8.2953450005402527E-003   7.6232745861379812E-003   0.0000000000000000     
   0.0000000000000000        0.0000000000000000        0.0000000000000000     
   1.7716353000954621E-003   1.2585128711379520E-003   0.0000000000000000     
   3.5562121568281616E-003   2.9080549481961958E-003   0.0000000000000000     
   5.3537305701980972E-003   4.9486262311747315E-003   0.0000000000000000     
   7.1641905402052711E-003   7.3802267200735591E-003   0.0000000000000000     
   1.2243879083471982E-002   9.0289487470560752E-003   0.0000000000000000     
   1.5485082108077487E-002   1.2129896230127144E-002   0.0000000000000000     
   1.8643487001347228E-002   1.5406276130897147E-002   0.0000000000000000     
   2.1719093763281200E-002   1.8858088449366085E-002   0.0000000000000000     
   2.4711902393879409E-002   2.2485333185533959E-002   0.0000000000000000     
   1.0835189272173610E-002   8.4476355996292406E-003   0.0000000000000000     
   1.3649658979956285E-002   1.1436037767831803E-002   0.0000000000000000     
   1.6418973928827092E-002   1.4643908604898472E-002   0.0000000000000000     
   1.9143134118786039E-002   1.8071248110829243E-002   0.0000000000000000     
   2.1822139549833114E-002   2.1718056285624125E-002   0.0000000000000000     
   9.5190112445297011E-003   7.9790775459898742E-003   0.0000000000000000     
   1.1953004663856268E-002   1.0874947575444797E-002   0.0000000000000000     
   1.4366484530031141E-002   1.4023636350690146E-002   0.0000000000000000     
   1.6759450843054323E-002   1.7425143871725918E-002   0.0000000000000000     
   1.9131903602925816E-002   2.1079470138552114E-002   0.0000000000000000     
   8.2953450005402527E-003   7.6232745861379812E-003   0.0000000000000000     
   1.0395119159777436E-002   1.0446625652966125E-002   0.0000000000000000     
   1.2486018804959373E-002   1.3545459368272166E-002   0.0000000000000000     
   1.4568043936086064E-002   1.6919775732056094E-002   0.0000000000000000     
   1.6641194553157504E-002   2.0569574744317923E-002   0.0000000000000000     
   7.1641905402052711E-003   7.3802267200735591E-003   0.0000000000000000     
   8.9760024677197972E-003   1.0151072000395790E-002   0.0000000000000000     
   1.0777576753611792E-002   1.3209377657644532E-002   0.0000000000000000     
   1.2568913397881252E-002   1.6555143691819790E-002   0.0000000000000000     
   1.4350012400528186E-002   2.0188370102921564E-002   0.0000000000000000     
   2.4711902393879409E-002   2.2485333185533959E-002   0.0000000000000000     
   2.7620992530301144E-002   2.6321141356344280E-002   0.0000000000000000     