 <VTKFile type="UnstructuredGrid"  version="0.1"   >
 <UnstructuredGrid>
 <Piece  NumberOfPoints="          1600 "  NumberOfCells="         1024 ">
 <Points>
 <DataArray  type="Float64" NumberOfComponents="3"  format="ascii" >
   0.0000000000000000        0.0000000000000000        0.0000000000000000     
   3.1250000000000000E-002   0.0000000000000000        0.0000000000000000     
   6.2500000000000000E-002   0.0000000000000000        0.0000000000000000     
   9.3750000000000000E-002   0.0000000000000000        0.0000000000000000     
  0.12500000000000000        0.0000000000000000        0.0000000000000000     
   0.0000000000000000        3.1250000000000000E-002   0.0000000000000000     
   3.1250000000000000E-002   3.1250000000000000E-002   0.0000000000000000     
   6.2500000000000000E-002   3.1250000000000000E-002   0.0000000000000000     
   9.3750000000000000E-002   3.1250000000000000E-002   0.0000000000000000     
  0.12500000000000000        3.1250000000000000E-002   0.0000000000000000     
   0.0000000000000000        6.2500000000000000E-002   0.0000000000000000     
   3.1250000000000000E-002   6.2500000000000000E-002   0.0000000000000000     
   6.2500000000000000E-002   6.2500000000000000E-002   0.0000000000000000     
   9.3750000000000000E-002   6.2500000000000000E-002   0.0000000000000000     
  0.12500000000000000        6.2500000000000000E-002   0.0000000000000000     
   0.0000000000000000        9.3750000000000000E-002   0.0000000000000000     
   3.1250000000000000E-002   9.3750000000000000E-002   0.0000000000000000     
   6.2500000000000000E-002   9.3750000000000000E-002   0.0000000000000000     
   9.3750000000000000E-002   9.3750000000000000E-002   0.0000000000000000     
  0.12500000000000000        9.3750000000000000E-002   0.0000000000000000     
   0.0000000000000000       0.12500000000000000        0.0000000000000000     
   3.1250000000000000E-002  0.12500000000000000        0.0000000000000000     
   6.2500000000000000E-002  0.12500000000000000        0.0000000000000000     
   9.3750000000000000E-002  0.12500000000000000        0.0000000000000000     
  0.12500000000000000       0.12500000000000000        0.0000000000000000     
  0.12500000000000000        0.0000000000000000        0.0000000000000000     
  0.15625000000000000        0.0000000000000000        0.0000000000000000     
  0.18750000000000000        0.0000000000000000        0.0000000000000000     
  0.21875000000000000        0.0000000000000000        0.0000000000000000     
  0.25000000000000000        0.0000000000000000        0.0000000000000000     
  0.12500000000000000        3.1250000000000000E-002   0.0000000000000000     
  0.15625000000000000        3.1250000000000000E-002   0.0000000000000000     
  0.18750000000000000        3.1250000000000000E-002   0.0000000000000000     
  0.21875000000000000        3.1250000000000000E-002   0.0000000000000000     
  0.25000000000000000        3.1250000000000000E-002   0.0000000000000000     
  0.12500000000000000        6.2500000000000000E-002   0.0000000000000000     
  0.15625000000000000        6.2500000000000000E-002   0.0000000000000000     
  0.18750000000000000        6.2500000000000000E-002   0.0000000000000000     
  0.21875000000000000        6.2500000000000000E-002   0.0000000000000000     
  0.25000000000000000        6.2500000000000000E-002   0.0000000000000000     
  0.12500000000000000        9.3750000000000000E-002   0.0000000000000000     
  0.15625000000000000        9.3750000000000000E-002   0.0000000000000000     
  0.18750000000000000        9.3750000000000000E-002   0.0000000000000000     
  0.21875000000000000        9.3750000000000000E-002   0.0000000000000000     
  0.25000000000000000        9.3750000000000000E-002   0.0000000000000000     
  0.12500000000000000       0.12500000000000000        0.0000000000000000     
  0.15625000000000000       0.12500000000000000        0.0000000000000000     
  0.18750000000000000       0.12500000000000000        0.0000000000000000     
  0.21875000000000000       0.12500000000000000        0.0000000000000000     
  0.25000000000000000       0.12500000000000000        0.0000000000000000     
  0.25000000000000000        0.0000000000000000        0.0000000000000000     
  0.28125000000000000        0.0000000000000000        0.0000000000000000     
  0.31250000000000000        0.0000000000000000        0.0000000000000000     
  0.34375000000000000        0.0000000000000000        0.0000000000000000     
  0.37500000000000000        0.0000000000000000        0.0000000000000000     
  0.25000000000000000        3.1250000000000000E-002   0.0000000000000000     
  0.28125000000000000        3.1250000000000000E-002   0.0000000000000000     
  0.31250000000000000        3.1250000000000000E-002   0.0000000000000000     
  0.34375000000000000        3.1250000000000000E-002   0.0000000000000000     
  0.37500000000000000        3.1250000000000000E-002   0.0000000000000000     
  0.25000000000000000        6.2500000000000000E-002   0.0000000000000000     
  0.28125000000000000        6.2500000000000000E-002   0.0000000000000000     
  0.31250000000000000        6.2500000000000000E-002   0.0000000000000000     
  0.34375000000000000        6.2500000000000000E-002   0.0000000000000000     
  0.37500000000000000        6.2500000000000000E-002   0.0000000000000000     
  0.25000000000000000        9.3750000000000000E-002   0.0000000000000000     
  0.28125000000000000        9.3750000000000000E-002   0.0000000000000000     
  0.31250000000000000        9.3750000000000000E-002   0.0000000000000000     
  0.34375000000000000        9.3750000000000000E-002   0.0000000000000000     
  0.37500000000000000        9.3750000000000000E-002   0.0000000000000000     
  0.25000000000000000       0.12500000000000000        0.0000000000000000     
  0.28125000000000000       0.12500000000000000        0.0000000000000000     
  0.31250000000000000       0.12500000000000000        0.0000000000000000     
  0.34375000000000000       0.12500000000000000        0.0000000000000000     
  0.37500000000000000       0.12500000000000000        0.0000000000000000     
  0.37500000000000000        0.0000000000000000        0.0000000000000000     
  0.40625000000000000        0.0000000000000000        0.0000000000000000     
  0.43750000000000000        0.0000000000000000        0.0000000000000000     
  0.46875000000000000        0.0000000000000000        0.0000000000000000     
  0.50000000000000000        0.0000000000000000        0.0000000000000000     
  0.37500000000000000        3.1250000000000000E-002   0.0000000000000000     
  0.40625000000000000        3.1250000000000000E-002   0.0000000000000000     
  0.43750000000000000        3.1250000000000000E-002   0.0000000000000000     
  0.46875000000000000        3.1250000000000000E-002   0.0000000000000000     
  0.50000000000000000        3.1250000000000000E-002   0.0000000000000000     
  0.37500000000000000        6.2500000000000000E-002   0.0000000000000000     
  0.40625000000000000        6.2500000000000000E-002   0.0000000000000000     
  0.43750000000000000        6.2500000000000000E-002   0.0000000000000000     
  0.46875000000000000        6.2500000000000000E-002   0.0000000000000000     
  0.50000000000000000        6.2500000000000000E-002   0.0000000000000000     
  0.37500000000000000        9.3750000000000000E-002   0.0000000000000000     
  0.40625000000000000        9.3750000000000000E-002   0.0000000000000000     
  0.43750000000000000        9.3750000000000000E-002   0.0000000000000000     
  0.46875000000000000        9.3750000000000000E-002   0.0000000000000000     
  0.50000000000000000        9.3750000000000000E-002   0.0000000000000000     
  0.37500000000000000       0.12500000000000000        0.0000000000000000     
  0.40625000000000000       0.12500000000000000        0.0000000000000000     
  0.43750000000000000       0.12500000000000000        0.0000000000000000     
  0.46875000000000000       0.12500000000000000        0.0000000000000000     
  0.50000000000000000       0.12500000000000000        0.0000000000000000     
  0.50000000000000000        0.0000000000000000        0.0000000000000000     
  0.53125000000000000        0.0000000000000000        0.0000000000000000     
  0.56250000000000000        0.0000000000000000        0.0000000000000000     
  0.59375000000000000        0.0000000000000000        0.0000000000000000     
  0.62500000000000000        0.0000000000000000        0.0000000000000000     
  0.50000000000000000        3.1250000000000000E-002   0.0000000000000000     
  0.53125000000000000        3.1250000000000000E-002   0.0000000000000000     
  0.56250000000000000        3.1250000000000000E-002   0.0000000000000000     
  0.59375000000000000        3.1250000000000000E-002   0.0000000000000000     
  0.62500000000000000        3.1250000000000000E-002   0.0000000000000000     
  0.50000000000000000        6.2500000000000000E-002   0.0000000000000000     
  0.53125000000000000        6.2500000000000000E-002   0.0000000000000000     
  0.56250000000000000        6.2500000000000000E-002   0.0000000000000000     
  0.59375000000000000        6.2500000000000000E-002   0.0000000000000000     
  0.62500000000000000        6.2500000000000000E-002   0.0000000000000000     
  0.50000000000000000        9.3750000000000000E-002   0.0000000000000000     
  0.53125000000000000        9.3750000000000000E-002   0.0000000000000000     
  0.56250000000000000        9.3750000000000000E-002   0.0000000000000000     
  0.59375000000000000        9.3750000000000000E-002   0.0000000000000000     
  0.62500000000000000        9.3750000000000000E-002   0.0000000000000000     
  0.50000000000000000       0.12500000000000000        0.0000000000000000     
  0.53125000000000000       0.12500000000000000        0.0000000000000000     
  0.56250000000000000       0.12500000000000000        0.0000000000000000     
[...]
 <PointData>
 <DataArray  type="Float64" Name="disp" NumberOfComponents="3" format="ascii">
   0.0000000000000000        0.0000000000000000        0.0000000000000000     
   6.0960795809134865E-003   3.7902328232511662E-003   0.0000000000000000     
   1.1666285781377274E-002   7.3236176192993160E-003   0.0000000000000000     
   1.6710618601391364E-002   1.0600154388144451E-002   0.0000000000000000     
   2.1229078040955755E-002   1.3619843129786572E-002   0.0000000000000000     
   0.0000000000000000        0.0000000000000000        0.0000000000000000     
   4.8912725807480524E-003   3.0220025969465037E-003   0.0000000000000000     
   9.5739083670682359E-003   6.0603541564801851E-003   0.0000000000000000     
   1.4047907358960551E-002   9.1150546786010443E-003   0.0000000000000000     
   1.8313269556424996E-002   1.2186104163309085E-002   0.0000000000000000     
   0.0000000000000000        0.0000000000000000        0.0000000000000000     
   3.9536885215748921E-003   2.4250074109565031E-003   0.0000000000000000     
   7.9108855908139042E-003   5.0627326869018760E-003   0.0000000000000000     
   1.1871591207717035E-002   7.9131758278361206E-003   0.0000000000000000     
   1.5835805372284288E-002   1.0976336833759232E-002   0.0000000000000000     
   0.0000000000000000        0.0000000000000000        0.0000000000000000     
   3.2833274033940056E-003   1.9992472652811638E-003   0.0000000000000000     
   6.6772174526142786E-003   4.3307532105643885E-003   0.0000000000000000     
   1.0181670147660821E-002   6.9945178358496746E-003   0.0000000000000000     
   1.3796685488533633E-002   9.9905411411370226E-003   0.0000000000000000     
   0.0000000000000000        0.0000000000000000        0.0000000000000000     
   2.8801892262053930E-003   1.7447221599204859E-003   0.0000000000000000     
   5.8729039524693626E-003   3.8644157274677227E-003   0.0000000000000000     
   8.9781441787919070E-003   6.3590807026417118E-003   0.0000000000000000     
   1.2195909905173028E-002   9.2287170854424526E-003   0.0000000000000000     
   2.1229078040955755E-002   1.3619843129786572E-002   0.0000000000000000     
   2.5434444717443747E-002   1.6613043718755171E-002   0.0000000000000000     
   2.9539499248228643E-002   1.9810116029579734E-002   0.0000000000000000     
   3.3544241633310448E-002   2.3211060062260265E-002   0.0000000000000000     
   3.7448671872689153E-002   2.6815875816796772E-002   0.0000000000000000     
   1.8313269556424996E-002   1.2186104163309085E-002   0.0000000000000000     
   2.2408174956890743E-002   1.5341707649706750E-002   0.0000000000000000     
   2.6370803557786968E-002   1.8650070176896502E-002   0.0000000000000000     
   3.0201155359113659E-002   2.2111191744878342E-002   0.0000000000000000     
   3.3899230360870836E-002   2.5725072353652258E-002   0.0000000000000000     
   1.5835805372284288E-002   1.0976336833759232E-002   0.0000000000000000     
   1.9731756518223054E-002   1.4210963359124723E-002   0.0000000000000000     
   2.3487673079240719E-002   1.7575803058386106E-002   0.0000000000000000     
   2.7103555055337302E-002   2.1070855931543377E-002   0.0000000000000000     
   3.0579402446512780E-002   2.4696121978596532E-002   0.0000000000000000     
   1.3796685488533633E-002   9.9905411411370226E-003   0.0000000000000000     
   1.7405189401440674E-002   1.3220810847009089E-002   0.0000000000000000     
   2.0890107812589920E-002   1.6587314674048542E-002   0.0000000000000000     
   2.4251440721981352E-002   2.0090052622255369E-002   0.0000000000000000     
   2.7489188129614990E-002   2.3729024691629578E-002   0.0000000000000000     
   1.2195909905173028E-002   9.2287170854424526E-003   0.0000000000000000     
   1.5428473606543610E-002   1.2371250113359850E-002   0.0000000000000000     
   1.8578107757834545E-002   1.5684605023883805E-002   0.0000000000000000     
   2.1644812359045831E-002   1.9168781817014327E-002   0.0000000000000000     
   2.4628587410177469E-002   2.2823780492751404E-002   0.0000000000000000     
   3.7448671872689153E-002   2.6815875816796772E-002   0.0000000000000000     
   4.1257409226692951E-002   3.0620492237246038E-002   0.0000000000000000     
   4.4975072955650022E-002   3.4620838267664870E-002   0.0000000000000000     
   4.8601663059560374E-002   3.8816913908053259E-002   0.0000000000000000     
   5.2137179538423992E-002   4.3208719158411207E-002   0.0000000000000000     
   3.3899230360870836E-002   2.5725072353652258E-002   0.0000000000000000     
   3.7488180574617030E-002   2.9520944124959342E-002   0.0000000000000000     
   4.0991158011910785E-002   3.3528039180540654E-002   0.0000000000000000     
   4.4408162672752126E-002   3.7746357520396200E-002   0.0000000000000000     
   4.7739194557141013E-002   4.2175899144525991E-002   0.0000000000000000     
   3.0579402446512780E-002   2.4696121978596532E-002   0.0000000000000000     
   3.3944462773541344E-002   2.8496417058240749E-002   0.0000000000000000     
   3.7227983557197163E-002   3.2516557029171209E-002   0.0000000000000000     
   4.0429964797480240E-002   3.6756541891387891E-002   0.0000000000000000     
   4.3550406494390570E-002   4.1216371644890823E-002   0.0000000000000000     
   2.7489188129614990E-002   2.3729024691629578E-002   0.0000000000000000     
   3.0626255823465894E-002   2.7546911037090265E-002   0.0000000000000000     
   3.3685549591509149E-002   3.1586391813556512E-002   0.0000000000000000     
   3.6667069433744724E-002   3.5847467021028333E-002   0.0000000000000000     
   3.9570815350172657E-002   4.0330136659505703E-002   0.0000000000000000     
   2.4628587410177469E-002   2.2823780492751404E-002   0.0000000000000000     
   2.7533559724390692E-002   2.6672426061507878E-002   0.0000000000000000     
   3.0363856114846731E-002   3.0737543533696576E-002   0.0000000000000000     
   3.3119476581545591E-002   3.5019132909317498E-002   0.0000000000000000     
   3.5800421124487274E-002   3.9517194188370644E-002   0.0000000000000000     
   5.2137179538423992E-002   4.3208719158411207E-002   0.0000000000000000     
   5.5577948967430429E-002   4.7799556009351526E-002   0.0000000000000000     
   5.8920297921769220E-002   5.2592726451487021E-002   0.0000000000000000     
   6.2164226401440363E-002   5.7588230484817711E-002   0.0000000000000000     
   6.5309734406443859E-002   6.2786068109343562E-002   0.0000000000000000     
   4.7739194557141013E-002   4.2175899144525991E-002   0.0000000000000000     
   5.0980159292433019E-002   4.6809239705339109E-002   0.0000000000000000     
   5.4126962505983658E-002   5.1638954855244681E-002   0.0000000000000000     
   5.7179604197792937E-002   5.6665044594242688E-002   0.0000000000000000     
   6.0138084367860861E-002   6.1887508922333148E-002   0.0000000000000000     
   4.3550406494390570E-002   4.1216371644890823E-002   0.0000000000000000     
   4.6585694651401659E-002   4.5882861555560428E-002   0.0000000000000000     
   4.9532215271987014E-002   5.0742826889277177E-002   0.0000000000000000     
   5.2389968356146621E-002   5.5796267646041051E-002   0.0000000000000000     
   5.5158953903880495E-002   6.1043183825852054E-002   0.0000000000000000     
   3.9570815350172657E-002   4.0330136659505703E-002   0.0000000000000000     
   4.2394555044336361E-002   4.5020421560015490E-002   0.0000000000000000     
   4.5136056219779272E-002   4.9904342553584516E-002   0.0000000000000000     
   4.7795318876501423E-002   5.4981899640212779E-002   0.0000000000000000     
   5.0372343014502760E-002   6.0253092819900281E-002   0.0000000000000000     
   3.5800421124487274E-002   3.9517194188370644E-002   0.0000000000000000     
   3.8406740471237107E-002   4.4221919718704289E-002   0.0000000000000000     
   4.0938485349360454E-002   4.9123501848166697E-002   0.0000000000000000     
   4.3395655758857309E-002   5.4221940576757867E-002   0.0000000000000000     
   4.5778251699727657E-002   5.9517235904477814E-002   0.0000000000000000     
   6.5309734406443859E-002   6.2786068109343562E-002   0.0000000000000000     
   6.8361659937928684E-002   6.8174518879303786E-002   0.0000000000000000     
   7.1324840997043837E-002   7.3741862348937551E-002   0.0000000000000000     
   7.4199277583789344E-002   7.9488098518244885E-002   0.0000000000000000     
   7.6984969698165179E-002   8.5413227387225760E-002   0.0000000000000000     
   6.0138084367860861E-002   6.1887508922333148E-002   0.0000000000000000     
   6.3006783309863160E-002   6.7299005031184800E-002   0.0000000000000000     
   6.5790081317475602E-002   7.2892190112466324E-002   0.0000000000000000     
   6.8487978390698159E-002   7.8667064166177761E-002   0.0000000000000000     
   7.1100474529530860E-002   8.4623627192319084E-002   0.0000000000000000     
   5.5158953903880495E-002   6.1043183825852054E-002   0.0000000000000000     
   5.7842842192239473E-002   6.6478461800048350E-002   0.0000000000000000     
   6.0445303498274386E-002   7.2096987939968077E-002   0.0000000000000000     
   6.2966337821985269E-002   7.7898762245611208E-002   0.0000000000000000     
   6.5405945163372087E-002   8.3883784716977799E-002   0.0000000000000000     
   5.0372343014502760E-002   6.0253092819900281E-002   0.0000000000000000     
   5.2869836585057603E-002   6.5712889185894477E-002   0.0000000000000000     
   5.5290507539440238E-002   7.1356255831442797E-002   0.0000000000000000     
   5.7634355877650638E-002   7.7183192756545282E-002   0.0000000000000000     
   5.9901381599688823E-002   8.3193699961201864E-002   0.0000000000000000     
   4.5778251699727657E-002   5.9517235904477814E-002   0.0000000000000000     
   4.8087766488317578E-002   6.5002287188723140E-002   0.0000000000000000     
   5.0325693440973124E-002   7.0669993786890498E-002   0.0000000000000000     
   5.2492032557694294E-002   7.6520355698979872E-002   0.0000000000000000     
   5.4586783838481104E-002   8.2553372924991264E-002   0.0000000000000000     
   7.6984969698165179E-002   8.5413227387225760E-002   0.0000000000000000     
   7.9672795684340325E-002   9.1506221617146000E-002   0.0000000000000000     
   8.2253633886483796E-002   9.7756053869271470E-002   0.0000000000000000     
   8.4727484304595591E-002  0.10416272414360213        0.0000000000000000     
   8.7094346938675696E-002  0.11072623244013800        0.0000000000000000     
   7.1100474529530860E-002   8.4623627192319084E-002   0.0000000000000000     
   7.3619028749035767E-002   9.0747814094628898E-002   0.0000000000000000     
   7.6035100064274969E-002   9.7025559776845752E-002   0.0000000000000000     
   7.8348688475248465E-002  0.10345686423896963        0.0000000000000000     
   8.0559793981956229E-002  0.11004172748100058        0.0000000000000000     
   6.5405945163372087E-002   8.3883784716977799E-002   0.0000000000000000     
   6.7756234426683049E-002   9.0036118652054187E-002   0.0000000000000000     
   7.0009314516166377E-002   9.6339827348826831E-002   0.0000000000000000     
   7.2165185431822043E-002  0.10279491080729568        0.0000000000000000     
   7.4223847173650062E-002  0.10940136902746075        0.0000000000000000     
   5.9901381599688823E-002   8.3193699961201864E-002   0.0000000000000000     
   6.2084412717282163E-002   8.9371135289421894E-002   0.0000000000000000     
   6.4176277242157992E-002   9.5698856585214681E-002   0.0000000000000000     
   6.6176975174316352E-002  0.10217686384858023        0.0000000000000000     
   6.8086506513757195E-002  0.10880515707951853        0.0000000000000000     
   5.4586783838481104E-002   8.2553372924991264E-002   0.0000000000000000     
   5.6603563620833103E-002   8.8752864006731991E-002   0.0000000000000000     
   5.8535988242249849E-002   9.5102647486009328E-002   0.0000000000000000     
   6.0384057702731378E-002  0.10160272336282331        0.0000000000000000     
   6.2147772002277640E-002  0.10825309163717389        0.0000000000000000     
   8.7094346938675696E-002  0.11072623244013800        0.0000000000000000     
   8.9365996512444326E-002  0.11743557297516348        0.0000000000000000     
   9.1554207749621669E-002  0.12427973996496296        0.0000000000000000     
   9.3658980650207738E-002  0.13125873340953639        0.0000000000000000     
   9.5680315214202533E-002  0.13837255330888387        0.0000000000000000     
   8.0559793981956229E-002  0.11004172748100058        0.0000000000000000     
   8.2686100109156724E-002  0.11677438289542713        0.0000000000000000     
   8.4745290381608412E-002  0.12364906387473786        0.0000000000000000     
   8.6737364799311281E-002  0.13066577041893271        0.0000000000000000     
   8.8662323362265302E-002  0.13782450252801182        0.0000000000000000     
   7.4223847173650062E-002  0.10940136902746075        0.0000000000000000     
   7.6206014078866860E-002  0.11615696234607435        0.0000000000000000     
   7.8132400484688863E-002  0.12305945109988879        0.0000000000000000     
   8.0003006391116044E-002  0.13010883528890405        0.0000000000000000     
   8.1817831798148444E-002  0.13730511491312014        0.0000000000000000     
   6.8086506513757195E-002  0.10880515707951853        0.0000000000000000     
   6.9925738421574707E-002  0.11558331132710518        0.0000000000000000     
   7.1715538058862993E-002  0.12251090164041580        0.0000000000000000     
   7.3455905425622081E-002  0.12958792801945038        0.0000000000000000     
   7.5146840521851943E-002  0.13681439046420887        0.0000000000000000     
   6.2147772002277640E-002  0.10825309163717389        0.0000000000000000     
   6.3845273137280265E-002  0.11505342983851959        0.0000000000000000     
   6.5494703104130830E-002  0.12200341549631882        0.0000000000000000     
   6.7096061902829338E-002  0.12910304861057165        0.0000000000000000     
   6.8649349533375786E-002  0.13635232918127804        0.0000000000000000     
   9.5680315214202533E-002  0.13837255330888387        0.0000000000000000     
   9.7622924162892769E-002  0.14561668441319991        0.0000000000000000     
   9.9491520217565216E-002  0.15298661147267928        0.0000000000000000     
  0.10128610337821985       0.16048233448732183        0.0000000000000000     
  0.10300667364485669       0.16810385345712764        0.0000000000000000     
   8.8662323362265302E-002  0.13782450252801182        0.0000000000000000     
   9.0500722604555037E-002  0.14510605943839314        0.0000000000000000     
   9.2233119060264976E-002  0.15249124038649486        0.0000000000000000     
   9.3859512729395134E-002  0.15998004537231700        0.0000000000000000     
   9.5379903611945482E-002  0.16757247439585946        0.0000000000000000     
   8.1817831798148444E-002  0.13730511491312014        0.0000000000000000     
   8.3544066710686982E-002  0.14462011608374686        0.0000000000000000     
   8.5148901133632646E-002  0.15202566491199401        0.0000000000000000     
   8.6632335066985422E-002  0.15952176139786162        0.0000000000000000     
   8.7994368510745297E-002  0.16710840554134962        0.0000000000000000     
   7.5146840521851943E-002  0.13681439046420887        0.0000000000000000     
   7.6752956481288645E-002  0.14415885434926110        0.0000000000000000     
   7.8238866437668253E-002  0.15158988504917667        0.0000000000000000     
   7.9604570390990753E-002  0.15910748256395565        0.0000000000000000     
   8.0850068341256173E-002  0.16671164689359808        0.0000000000000000     
   6.8649349533375786E-002  0.13635232918127804        0.0000000000000000     
   7.0127391916359999E-002  0.14372227423493583        0.0000000000000000     
   7.1503014972371770E-002  0.15118390079804292        0.0000000000000000     
   7.2776218701411141E-002  0.15873720887059925        0.0000000000000000     
   7.3947003103478084E-002  0.16638219845260488        0.0000000000000000     
   0.0000000000000000        0.0000000000000000        0.0000000000000000     
   2.8801892262053930E-003   1.7447221599204859E-003   0.0000000000000000     
   5.8729039524693626E-003   3.8644157274677227E-003   0.0000000000000000     
   8.9781441787919070E-003   6.3590807026417118E-003   0.0000000000000000     
   1.2195909905173028E-002   9.2287170854424526E-003   0.0000000000000000     
   0.0000000000000000        0.0000000000000000        0.0000000000000000     
   2.6104303250623390E-003   1.5887826498621569E-003   0.0000000000000000     
   5.2899594987641570E-003   3.5564214152934348E-003   0.0000000000000000     
   8.0385875211054555E-003   5.9029162962938335E-003   0.0000000000000000     
   1.0856314392086234E-002   8.6282672928633536E-003   0.0000000000000000     
   0.0000000000000000        0.0000000000000000        0.0000000000000000     
   2.3402070350181268E-003   1.4587792900938664E-003   0.0000000000000000     
   4.7203984998836716E-003   3.2994714517230804E-003   0.0000000000000000     
   7.1405743945966342E-003   5.5220764848876421E-003   0.0000000000000000     
   9.6007347191570131E-003   8.1265943895875523E-003   0.0000000000000000     
   0.0000000000000000        0.0000000000000000        0.0000000000000000     
   2.0695193560727582E-003   1.3547120806156130E-003   0.0000000000000000     
   4.1642209558279061E-003   3.0935658367566596E-003   0.0000000000000000     
   6.2841047992654416E-003   5.2165612684231394E-003   0.0000000000000000     
   8.4291708863853676E-003   7.7236983756150514E-003   0.0000000000000000     
   0.0000000000000000        0.0000000000000000        0.0000000000000000     
   1.7983672882262321E-003   1.2765810214273978E-003   0.0000000000000000     
   3.6214268665968581E-003   2.9387045703941723E-003   0.0000000000000000     
   5.4691787351118784E-003   4.9863706469003228E-003   0.0000000000000000     
   7.3416228937712930E-003   7.4195792509458500E-003   0.0000000000000000     
   1.2195909905173028E-002   9.2287170854424526E-003   0.0000000000000000     
   1.5428473606543610E-002   1.2371250113359850E-002   0.0000000000000000     
   1.8578107757834545E-002   1.5684605023883805E-002   0.0000000000000000     
   2.1644812359045831E-002   1.9168781817014327E-002   0.0000000000000000     
   2.4628587410177469E-002   2.2823780492751404E-002   0.0000000000000000     
   1.0856314392086234E-002   8.6282672928633536E-003   0.0000000000000000     
   1.3689795397969204E-002   1.1650214942551591E-002   0.0000000000000000     
   1.6485685825017082E-002   1.4886499782908156E-002   0.0000000000000000     
   1.9243985673229866E-002   1.8337121813933040E-002   0.0000000000000000     
   2.1964694942607554E-002   2.2002081035626245E-002   0.0000000000000000     
   9.6007347191570131E-003   8.1265943895875523E-003   0.0000000000000000     
   1.2077341040154805E-002   1.1045639118958913E-002   0.0000000000000000     
   1.4546854924179993E-002   1.4211824626137830E-002   0.0000000000000000     
   1.7009276371232583E-002   1.7625150911124307E-002   0.0000000000000000     
   1.9464605381312575E-002   2.1285617973918338E-002   0.0000000000000000     
   8.4291708863853676E-003   7.7236983756150514E-003   0.0000000000000000     
   1.0591110533100405E-002   1.0557522642581810E-002   0.0000000000000000     
   1.2761615055323283E-002   1.3660579553572838E-002   0.0000000000000000     
   1.4940684453053991E-002   1.7032869108588120E-002   0.0000000000000000     
   1.7128318726292543E-002   2.0674391307627677E-002   0.0000000000000000     
   7.3416228937712930E-003   7.4195792509458500E-003   0.0000000000000000     
   9.2311038768060107E-003   1.0185865513420288E-002   0.0000000000000000     
   1.1129966218446944E-002   1.3232764565213169E-002   0.0000000000000000     
   1.3038209918694090E-002   1.6560276406324494E-002   0.0000000000000000     
   1.4955834977547450E-002   2.0168401036754269E-002   0.0000000000000000     
   2.4628587410177469E-002   2.2823780492751404E-002   0.0000000000000000     
   2.7533559724390692E-002   2.6672426061507878E-002   0.0000000000000000     