 <VTKFile type="UnstructuredGrid"  version="0.1"   >
 <UnstructuredGrid>
 <Piece  NumberOfPoints="          1600 "  NumberOfCells="         1024 ">
 <Points>
 <DataArray  type="Float64" NumberOfComponents="3"  format="ascii" >
   0.0000000000000000        0.0000000000000000        0.0000000000000000     
   3.1250000000000000E-002   0.0000000000000000        0.0000000000000000     
   6.2500000000000000E-002   0.0000000000000000        0.0000000000000000     
   9.3750000000000000E-002   0.0000000000000000        0.0000000000000000     
  0.12500000000000000        0.0000000000000000        0.0000000000000000     
   0.0000000000000000        3.1250000000000000E-002   0.0000000000000000     
   3.1250000000000000E-002   3.1250000000000000E-002   0.0000000000000000     
   6.2500000000000000E-002   3.1250000000000000E-002   0.0000000000000000     
   9.3750000000000000E-002   3.1250000000000000E-002   0.0000000000000000     
  0.12500000000000000        3.1250000000000000E-002   0.0000000000000000     
   0.0000000000000000        6.2500000000000000E-002   0.0000000000000000     
   3.1250000000000000E-002   6.2500000000000000E-002   0.0000000000000000     
   6.2500000000000000E-002   6.2500000000000000E-002   0.0000000000000000     
   9.3750000000000000E-002   6.2500000000000000E-002   0.0000000000000000     
  0.12500000000000000        6.2500000000000000E-002   0.0000000000000000     
   0.0000000000000000        9.3750000000000000E-002   0.0000000000000000     
   3.1250000000000000E-002   9.3750000000000000E-002   0.0000000000000000     
   6.2500000000000000E-002   9.3750000000000000E-002   0.0000000000000000     
   9.3750000000000000E-002   9.3750000000000000E-002   0.0000000000000000     
  0.12500000000000000        9.3750000000000000E-002   0.0000000000000000     
   0.0000000000000000       0.12500000000000000        0.0000000000000000     
   3.1250000000000000E-002  0.12500000000000000        0.0000000000000000     
   6.2500000000000000E-002  0.12500000000000000        0.0000000000000000     
   9.3750000000000000E-002  0.12500000000000000        0.0000000000000000     
  0.12500000000000000       0.12500000000000000        0.0000000000000000     
  0.12500000000000000        0.0000000000000000        0.0000000000000000     
  0.15625000000000000        0.0000000000000000        0.0000000000000000     
  0.18750000000000000        0.0000000000000000        0.0000000000000000     
  0.21875000000000000        0.0000000000000000        0.0000000000000000     
  0.25000000000000000        0.0000000000000000        0.0000000000000000     
  0.12500000000000000        3.1250000000000000E-002   0.0000000000000000     
  0.15625000000000000        3.1250000000000000E-002   0.0000000000000000     
  0.18750000000000000        3.1250000000000000E-002   0.0000000000000000     
  0.21875000000000000        3.1250000000000000E-002   0.0000000000000000     
  0.25000000000000000        3.1250000000000000E-002   0.0000000000000000     
  0.12500000000000000        6.2500000000000000E-002   0.0000000000000000     
  0.15625000000000000        6.2500000000000000E-002   0.0000000000000000     
  0.18750000000000000        6.2500000000000000E-002   0.0000000000000000     
  0.21875000000000000        6.2500000000000000E-002   0.0000000000000000     
  0.25000000000000000        6.2500000000000000E-002   0.0000000000000000     
  0.12500000000000000        9.3750000000000000E-002   0.0000000000000000     
  0.15625000000000000        9.3750000000000000E-002   0.0000000000000000     
  0.18750000000000000        9.3750000000000000E-002   0.0000000000000000     
  0.21875000000000000        9.3750000000000000E-002   0.0000000000000000     
  0.25000000000000000        9.3750000000000000E-002   0.0000000000000000     
  0.12500000000000000       0.12500000000000000        0.0000000000000000     
  0.15625000000000000       0.12500000000000000        0.0000000000000000     
  0.18750000000000000       0.12500000000000000        0.0000000000000000     
  0.21875000000000000       0.12500000000000000        0.0000000000000000     
  0.25000000000000000       0.12500000000000000        0.0000000000000000     
  0.25000000000000000        0.0000000000000000        0.0000000000000000     
  0.28125000000000000        0.0000000000000000        0.0000000000000000     
  0.31250000000000000        0.0000000000000000        0.0000000000000000     
  0.34375000000000000        0.0000000000000000        0.0000000000000000     
  0.37500000000000000        0.0000000000000000        0.0000000000000000     
  0.25000000000000000        3.1250000000000000E-002   0.0000000000000000     
  0.28125000000000000        3.1250000000000000E-002   0.0000000000000000     
  0.31250000000000000        3.1250000000000000E-002   0.0000000000000000     
  0.34375000000000000        3.1250000000000000E-002   0.0000000000000000     
  0.37500000000000000        3.1250000000000000E-002   0.0000000000000000     
  0.25000000000000000        6.2500000000000000E-002   0.0000000000000000     
  0.28125000000000000        6.2500000000000000E-002   0.0000000000000000     
  0.31250000000000000        6.2500000000000000E-002   0.0000000000000000     
  0.34375000000000000        6.2500000000000000E-002   0.0000000000000000     
  0.37500000000000000        6.2500000000000000E-002   0.0000000000000000     
  0.25000000000000000        9.3750000000000000E-002   0.0000000000000000     
  0.28125000000000000        9.3750000000000000E-002   0.0000000000000000     
  0.31250000000000000        9.3750000000000000E-002   0.0000000000000000     
  0.34375000000000000        9.3750000000000000E-002   0.0000000000000000     
  0.37500000000000000        9.3750000000000000E-002   0.0000000000000000     
  0.25000000000000000       0.12500000000000000        0.0000000000000000     
  0.28125000000000000       0.12500000000000000        0.0000000000000000     
  0.31250000000000000       0.12500000000000000        0.0000000000000000     
  0.34375000000000000       0.12500000000000000        0.0000000000000000     
  0.37500000000000000       0.12500000000000000        0.0000000000000000     
  0.37500000000000000        0.0000000000000000        0.0000000000000000     
  0.40625000000000000        0.0000000000000000        0.0000000000000000     
  0.43750000000000000        0.0000000000000000        0.0000000000000000     
  0.46875000000000000        0.0000000000000000        0.0000000000000000     
  0.50000000000000000        0.0000000000000000        0.0000000000000000     
  0.37500000000000000        3.1250000000000000E-002   0.0000000000000000     
  0.40625000000000000        3.1250000000000000E-002   0.0000000000000000     
  0.43750000000000000        3.1250000000000000E-002   0.0000000000000000     
  0.46875000000000000        3.1250000000000000E-002   0.0000000000000000     
  0.50000000000000000        3.1250000000000000E-002   0.0000000000000000     
  0.37500000000000000        6.2500000000000000E-002   0.0000000000000000     
  0.40625000000000000        6.2500000000000000E-002   0.0000000000000000     
  0.43750000000000000        6.2500000000000000E-002   0.0000000000000000     
  0.46875000000000000        6.2500000000000000E-002   0.0000000000000000     
  0.50000000000000000        6.2500000000000000E-002   0.0000000000000000     
  0.37500000000000000        9.3750000000000000E-002   0.0000000000000000     
  0.40625000000000000        9.3750000000000000E-002   0.0000000000000000     
  0.43750000000000000        9.3750000000000000E-002   0.0000000000000000     
  0.46875000000000000        9.3750000000000000E-002   0.0000000000000000     
  0.50000000000000000        9.3750000000000000E-002   0.0000000000000000     
  0.37500000000000000       0.12500000000000000        0.0000000000000000     
  0.40625000000000000       0.12500000000000000        0.0000000000000000     
  0.43750000000000000       0.12500000000000000        0.0000000000000000     
  0.46875000000000000       0.12500000000000000        0.0000000000000000     
  0.50000000000000000       0.12500000000000000        0.0000000000000000     
  0.50000000000000000        0.0000000000000000        0.0000000000000000     
  0.53125000000000000        0.0000000000000000        0.0000000000000000     
  0.56250000000000000        0.0000000000000000        0.0000000000000000     
  0.59375000000000000        0.0000000000000000        0.0000000000000000     
  0.62500000000000000        0.0000000000000000        0.0000000000000000     
  0.50000000000000000        3.1250000000000000E-002   0.0000000000000000     
  0.53125000000000000        3.1250000000000000E-002   0.0000000000000000     
  0.56250000000000000        3.1250000000000000E-002   0.0000000000000000     
  0.59375000000000000        3.1250000000000000E-002   0.0000000000000000     
  0.62500000000000000        3.1250000000000000E-002   0.0000000000000000     
  0.50000000000000000        6.2500000000000000E-002   0.0000000000000000     
  0.53125000000000000        6.2500000000000000E-002   0.0000000000000000     
  0.56250000000000000        6.2500000000000000E-002   0.0000000000000000     
  0.59375000000000000        6.2500000000000000E-002   0.0000000000000000     
  0.62500000000000000        6.2500000000000000E-002   0.0000000000000000     
  0.50000000000000000        9.3750000000000000E-002   0.0000000000000000     
  0.53125000000000000        9.3750000000000000E-002   0.0000000000000000     
  0.56250000000000000        9.3750000000000000E-002   0.0000000000000000     
  0.59375000000000000        9.3750000000000000E-002   0.0000000000000000     
  0.62500000000000000        9.3750000000000000E-002   0.0000000000000000     
  0.50000000000000000       0.12500000000000000        0.0000000000000000     
  0.53125000000000000       0.12500000000000000        0.0000000000000000     
  0.56250000000000000       0.12500000000000000        0.0000000000000000     
[...]
 <PointData>
 <DataArray  type="Float64" Name="disp" NumberOfComponents="3" format="ascii">
   0.0000000000000000        0.0000000000000000        0.0000000000000000     
   6.0959507946475918E-003   3.7903750659290707E-003   0.0000000000000000     
   1.1665979503391013E-002   7.3237729843958696E-003   0.0000000000000000     
   1.6710086126230261E-002   1.0600193755400394E-002   0.0000000000000000     
   2.1228270663165343E-002   1.3619637378942645E-002   0.0000000000000000     
   0.0000000000000000        0.0000000000000000        0.0000000000000000     
   4.8911475607089274E-003   3.0221324835910364E-003   0.0000000000000000     
   9.5736279390680606E-003   6.0605114583848277E-003   0.0000000000000000     
   1.4047441135077400E-002   9.1151369243813729E-003   0.0000000000000000     
   1.8312587148736945E-002   1.2186008881580675E-002   0.0000000000000000     
   0.0000000000000000        0.0000000000000000        0.0000000000000000     
   3.9535686876728147E-003   2.4251301948369341E-003   0.0000000000000000     
   7.9106251781339773E-003   5.0629011462340412E-003   0.0000000000000000     
   1.1871169471383485E-002   7.9133128541913223E-003   0.0000000000000000     
   1.5835201567421339E-002   1.0976365318708775E-002   0.0000000000000000     
   0.0000000000000000        0.0000000000000000        0.0000000000000000     
   3.2832141755392550E-003   1.9993681996667632E-003   0.0000000000000000     
   6.6769712205887628E-003   4.3309420479435085E-003   0.0000000000000000     
   1.0181271135148520E-002   6.9947215448302362E-003   0.0000000000000000     
   1.3796113919218530E-002   9.9907066903269469E-003   0.0000000000000000     
   0.0000000000000000        0.0000000000000000        0.0000000000000000     
   2.8800840243082496E-003   1.7448464980805243E-003   0.0000000000000000     
   5.8726660664324172E-003   3.8646341635132303E-003   0.0000000000000000     
   8.9777461263725045E-003   6.3593629962981181E-003   0.0000000000000000     
   1.2195324204128508E-002   9.2290329964351877E-003   0.0000000000000000     
   2.1228270663165343E-002   1.3619637378942645E-002   0.0000000000000000     
   2.5433414635233884E-002   1.6612646034407208E-002   0.0000000000000000     
   2.9538399563473528E-002   1.9809761901178675E-002   0.0000000000000000     
   3.3543225447884267E-002   2.3210984979257034E-002   0.0000000000000000     
   3.7447892288466116E-002   2.6816315268642296E-002   0.0000000000000000     
   1.8312587148736945E-002   1.2186008881580675E-002   0.0000000000000000     
   2.2407286464806570E-002   1.5341467339336405E-002   0.0000000000000000     
   2.6369759568046155E-002   1.8649852307002227E-002   0.0000000000000000     
   3.0200006458455681E-002   2.2111163784578159E-002   0.0000000000000000     
   3.3898027136035173E-002   2.5725401772064185E-002   0.0000000000000000     
   1.5835201567421339E-002   1.0976365318708775E-002   0.0000000000000000     
   1.9730953518814081E-002   1.4210897416744037E-002   0.0000000000000000     
   2.3486657378128238E-002   1.7575748025254731E-002   0.0000000000000000     
   2.7102313145363825E-002   2.1070917144240867E-002   0.0000000000000000     
   3.0577920820520819E-002   2.4696404773702444E-002   0.0000000000000000     
   1.3796113919218530E-002   9.9907066903269469E-003   0.0000000000000000     
   1.7404415797256413E-002   1.3220936266630106E-002   0.0000000000000000     
   2.0889092993719795E-002   1.6587449055936176E-002   0.0000000000000000     
   2.4250145508608673E-002   2.0090245058245165E-002   0.0000000000000000     
   2.7487573341923054E-002   2.3729324273557072E-002   0.0000000000000000     
   1.2195324204128508E-002   9.2290329964351877E-003   0.0000000000000000     
   1.5427673300133567E-002   1.2371583888994613E-002   0.0000000000000000     
   1.8577066414820816E-002   1.5684955399046567E-002   0.0000000000000000     
   2.1643503548190252E-002   1.9169147526591050E-002   0.0000000000000000     
   2.4626984700241876E-002   2.2824160271628063E-002   0.0000000000000000     
   3.7447892288466116E-002   2.6816315268642296E-002   0.0000000000000000     
   4.1256684123889158E-002   3.0621262337780054E-002   0.0000000000000000     
   4.4973884992823496E-002   3.4621335755115910E-002   0.0000000000000000     
   4.8599494895269116E-002   3.8816535520649877E-002   0.0000000000000000     
   5.2133513831226039E-002   4.3206861634381935E-002   0.0000000000000000     
   3.3898027136035173E-002   2.5725401772064185E-002   0.0000000000000000     
   3.7486921858338740E-002   2.9521459025023799E-002   0.0000000000000000     
   4.0989790882920533E-002   3.3528228299020482E-002   0.0000000000000000     
   4.4406634209780534E-002   3.7745709594054253E-002   0.0000000000000000     
   4.7737451838918740E-002   4.2173902910125093E-002   0.0000000000000000     
   3.0577920820520819E-002   2.4696404773702444E-002   0.0000000000000000     
   3.3942829058959116E-002   2.8496767840870022E-002   0.0000000000000000     
   3.7226386516038594E-002   3.2516563272974169E-002   0.0000000000000000     
   4.0428593191759253E-002   3.6755791070014872E-002   0.0000000000000000     
   4.3549449086121093E-002   4.1214451231992140E-002   0.0000000000000000     
   2.7487573341923054E-002   2.3729324273557072E-002   0.0000000000000000     
   3.0624405725750276E-002   2.7547188785318717E-002   0.0000000000000000     
   3.3683671892177691E-002   3.1586340676976930E-002   0.0000000000000000     
   3.6665371841205309E-002   3.5846779948531728E-002   0.0000000000000000     
   3.9569505572833105E-002   4.0328506599983084E-002   0.0000000000000000     
   2.4626984700241876E-002   2.2824160271628063E-002   0.0000000000000000     
   2.7531651858712224E-002   2.6672721858369889E-002   0.0000000000000000     
   3.0361647011337818E-002   3.0737560511028800E-002   0.0000000000000000     
   3.3116970158118667E-002   3.5018676229604813E-002   0.0000000000000000     
   3.5797621299054769E-002   3.9516069014097918E-002   0.0000000000000000     
   5.2133513831226039E-002   4.3206861634381935E-002   0.0000000000000000     
   5.5573405860826125E-002   4.7796490144160701E-002   0.0000000000000000     
   5.8916635044201242E-002   5.2589597097834798E-002   0.0000000000000000     
   6.2163201381351396E-002   5.7586182495404196E-002   0.0000000000000000     
   6.5313104872276567E-002   6.2786246336868912E-002   0.0000000000000000     
   4.7737451838918740E-002   4.2173902910125093E-002   0.0000000000000000     
   5.0978528274231827E-002   4.6806175724741154E-002   0.0000000000000000     
   5.4126148019616446E-002   5.1635895515410563E-002   0.0000000000000000     
   5.7180311075072612E-002   5.6663062282133345E-002   0.0000000000000000     
   6.0141017440600311E-002   6.1887676024909480E-002   0.0000000000000000     
   4.3549449086121093E-002   4.1214451231992140E-002   0.0000000000000000     
   4.6585252888679256E-002   4.5880047382344274E-002   0.0000000000000000     
   4.9532303288988888E-002   5.0740083144509555E-002   0.0000000000000000     
   5.2390600287049990E-002   5.5794558518487962E-002   0.0000000000000000     
   5.5160143882862570E-002   6.1043473504279522E-002   0.0000000000000000     
   3.9569505572833105E-002   4.0328506599983084E-002   0.0000000000000000     
   4.2393579704168412E-002   4.5018105116970068E-002   0.0000000000000000     
   4.5135100852318547E-002   4.9902159985131728E-002   0.0000000000000000     
   4.7794069017283509E-002   5.4980671204468055E-002   0.0000000000000000     
   5.0370484199063315E-002   6.0253638774979065E-002   0.0000000000000000     
   3.5797621299054769E-002   3.9516069014097918E-002   0.0000000000000000     
   3.8403508720699295E-002   4.4220348928618529E-002   0.0000000000000000     
   4.0934540709605442E-002   4.9122126037277100E-002   0.0000000000000000     
   4.3390717265773197E-002   5.4221400340073611E-002   0.0000000000000000     
   4.5772038389202588E-002   5.9518171837008062E-002   0.0000000000000000     
   6.5313104872276567E-002   6.2786246336868912E-002   0.0000000000000000     
   6.8368660292195932E-002   6.8177136180047365E-002   0.0000000000000000     
   7.1332182416328604E-002   7.3746199582757951E-002   0.0000000000000000     
   7.4203671244674599E-002   7.9493436545000698E-002   0.0000000000000000     
   7.6983126777233901E-002   8.5418847066775577E-002   0.0000000000000000     
   6.0141017440600311E-002   6.1887676024909480E-002   0.0000000000000000     
   6.3011419637087340E-002   6.7301171616906255E-002   0.0000000000000000     
   6.5794670185421456E-002   7.2894983931290944E-002   0.0000000000000000     
   6.8490769085602671E-002   7.8669112968063531E-002   0.0000000000000000     
   7.1099716337630986E-002   8.4623558727224032E-002   0.0000000000000000     
   5.5160143882862570E-002   6.1043473504279522E-002   0.0000000000000000     
   5.7844205845873714E-002   6.6480356783843800E-002   0.0000000000000000     
   6.0446057945530575E-002   7.2098737039140381E-002   0.0000000000000000     
   6.2965700181833104E-002   7.7898614270169239E-002   0.0000000000000000     
   6.5403132554781362E-002   8.3879988476930414E-002   0.0000000000000000     
   5.0370484199063315E-002   6.0253638774979065E-002   0.0000000000000000     
   5.2867018918555074E-002   6.5714691680860027E-002   0.0000000000000000     
   5.5286345696655935E-002   7.1357458906306293E-002   0.0000000000000000     
   5.7628464533365918E-002   7.7181940451317849E-002   0.0000000000000000     
   5.9893375428684996E-002   8.3188136315894695E-002   0.0000000000000000     
   4.5772038389202588E-002   5.9518171837008062E-002   0.0000000000000000     
   4.8079858855131434E-002   6.5004176307954936E-002   0.0000000000000000     
   5.0315533438797598E-002   7.0671149532788691E-002   0.0000000000000000     
   5.2479062140201087E-002   7.6519091511509346E-002   0.0000000000000000     
   5.4570444959341900E-002   8.2548002244116875E-002   0.0000000000000000     
   7.6983126777233901E-002   8.5418847066775577E-002   0.0000000000000000     
   7.9665671521079687E-002   9.1512215581886158E-002   0.0000000000000000     
   8.2246427983285075E-002   9.7763326524135982E-002   0.0000000000000000     
   8.4725396163850081E-002  0.10417217989352505        0.0000000000000000     
   8.7102576062774717E-002  0.11073877569005339        0.0000000000000000     
   7.1099716337630986E-002   8.4623558727224032E-002   0.0000000000000000     
   7.3617276064351575E-002   9.0746631304134337E-002   0.0000000000000000     
   7.6039212388609542E-002   9.7026640794156280E-002   0.0000000000000000     
   7.8365525310404929E-002  0.10346358719728986        0.0000000000000000     
   8.0596214829737708E-002  0.11005747051353515        0.0000000000000000     
   6.5403132554781362E-002   8.3879988476930414E-002   0.0000000000000000     
   6.7754725425201751E-002   9.0030362137435954E-002   0.0000000000000000     
   7.0016849153920729E-002   9.6337237729697919E-002   0.0000000000000000     
   7.2189503740938341E-002  0.10280061525371635        0.0000000000000000     
   7.4272689186254529E-002  0.10942049470949122        0.0000000000000000     
   5.9893375428684996E-002   8.3188136315894695E-002   0.0000000000000000     
   6.2078019603630220E-002   8.9363408081790996E-002   0.0000000000000000     
   6.4179338279218651E-002   9.5695117330760901E-002   0.0000000000000000     
   6.6197331455450273E-002  0.10218326406280444        0.0000000000000000     
   6.8131999132325136E-002  0.10882784827792161        0.0000000000000000     
   5.4570444959341900E-002   8.2548002244116875E-002   0.0000000000000000     
   5.6587158599636977E-002   8.8745769137199448E-002   0.0000000000000000     
   5.8526679764503278E-002   9.5100279597345225E-002   0.0000000000000000     
   6.0389008453940796E-002  0.10161153362455418        0.0000000000000000     
   6.2174144667949530E-002  0.10827953121882632        0.0000000000000000     
   8.7102576062774717E-002  0.11073877569005339        0.0000000000000000     
   8.9386081794830693E-002  0.11745169311374085        0.0000000000000000     
   9.1584027474789845E-002  0.12429951136460729        0.0000000000000000     
   9.3696413102652101E-002  0.13128223044265278        0.0000000000000000     
   9.5723238678417505E-002  0.13839985034787730        0.0000000000000000     
   8.0596214829737708E-002  0.11005747051353515        0.0000000000000000     
   8.2739188551527995E-002  0.11679745405643752        0.0000000000000000     
   8.4802354080695919E-002  0.12367270113954255        0.0000000000000000     
   8.6785711417241410E-002  0.13068321176285017        0.0000000000000000     
   8.8689260561164537E-002  0.13782898592636045        0.0000000000000000     
   7.4272689186254529E-002  0.10942049470949122        0.0000000000000000     
   7.6273808855870123E-002  0.11618633912766624        0.0000000000000000     
   7.8200266115785941E-002  0.12308761153888520        0.0000000000000000     
   8.0052060966001995E-002  0.13012431194314805        0.0000000000000000     
   8.1829193406518286E-002  0.13729644034045480        0.0000000000000000     
   6.8131999132325136E-002  0.10882784827792161        0.0000000000000000     
   6.9989942707857050E-002  0.11561834832742701        0.0000000000000000     
   7.1777763580059939E-002  0.12254424256263528        0.0000000000000000     
   7.3495461748933844E-002  0.12960553098354644        0.0000000000000000     
   7.5143037214478681E-002  0.13680221359016043        0.0000000000000000     
   6.2174144667949530E-002  0.10827953121882632        0.0000000000000000     
   6.3887590107488804E-002  0.11509348165571981        0.0000000000000000     
   6.5534846473517941E-002  0.12204259421079279        0.0000000000000000     
   6.7115913766036941E-002  0.12912686888404529        0.0000000000000000     
   6.8630791985045805E-002  0.13634630567547726        0.0000000000000000     
   9.5723238678417505E-002  0.13839985034787730        0.0000000000000000     
   9.7649069183909518E-002  0.14563833824993672        0.0000000000000000     
   9.9458469600951657E-002  0.15298366131848692        0.0000000000000000     
  0.10115143992954390       0.16043581955352798        0.0000000000000000     
  0.10272798016968626       0.16799481295505986        0.0000000000000000     
   8.8689260561164537E-002  0.13782898592636045        0.0000000000000000     
   9.0501260603678621E-002  0.14509548206266146        0.0000000000000000     
   9.2209970635996993E-002  0.15246815860434151        0.0000000000000000     
   9.3815390658119668E-002  0.15994701555140042        0.0000000000000000     
   9.5317520670046646E-002  0.16753205290383835        0.0000000000000000     
   8.1829193406518286E-002  0.13729644034045480        0.0000000000000000     
   8.3522376309839760E-002  0.14458927534862057        0.0000000000000000     
   8.5122322548471463E-002  0.15198809558546036        0.0000000000000000     
   8.6629032122413366E-002  0.15949290105097430        0.0000000000000000     
   8.8042505031665497E-002  0.16710369174516226        0.0000000000000000     
   7.5143037214478681E-002  0.13680221359016043        0.0000000000000000     
   7.6712416302392936E-002  0.14411971810781393        0.0000000000000000     
   7.8195525338375066E-002  0.15154347226184364        0.0000000000000000     
   7.9592364322425016E-002  0.15907347605224953        0.0000000000000000     
   8.0902933254542800E-002  0.16670972947903159        0.0000000000000000     
   6.8630791985045805E-002  0.13634630567547726        0.0000000000000000     
   7.0071380581338188E-002  0.14368681034024161        0.0000000000000000     
   7.1429579005707775E-002  0.15113428863349126        0.0000000000000000     
   7.2705387258154577E-002  0.15868874055522617        0.0000000000000000     
   7.3898805338678542E-002  0.16635016610544634        0.0000000000000000     
   0.0000000000000000        0.0000000000000000        0.0000000000000000     
   2.8800840243082496E-003   1.7448464980805243E-003   0.0000000000000000     
   5.8726660664324172E-003   3.8646341635132303E-003   0.0000000000000000     
   8.9777461263725045E-003   6.3593629962981181E-003   0.0000000000000000     
   1.2195324204128508E-002   9.2290329964351877E-003   0.0000000000000000     
   0.0000000000000000        0.0000000000000000        0.0000000000000000     
   2.6103365705726659E-003   1.5889195741793510E-003   0.0000000000000000     
   5.2897358724032064E-003   3.5566802501122013E-003   0.0000000000000000     
   8.0381979054916196E-003   5.9032820277985501E-003   0.0000000000000000     
   1.0855722669837907E-002   8.6287249072383963E-003   0.0000000000000000     
   0.0000000000000000        0.0000000000000000        0.0000000000000000     
   2.3401301509253752E-003   1.4589419120643772E-003   0.0000000000000000     
   4.7202067952393919E-003   3.2997830649094144E-003   0.0000000000000000     
   7.1402299329420505E-003   5.5225234585351123E-003   0.0000000000000000     
   9.6001995640333498E-003   8.1271630929414702E-003   0.0000000000000000     
   0.0000000000000000        0.0000000000000000        0.0000000000000000     
   2.0694647653663779E-003   1.3549135117356030E-003   0.0000000000000000     
   4.1640788349409756E-003   3.0939426079048720E-003   0.0000000000000000     
   6.2838422087237956E-003   5.2170872885078058E-003   0.0000000000000000     
   8.4287548867148353E-003   7.7243475535444068E-003   0.0000000000000000     
   0.0000000000000000        0.0000000000000000        0.0000000000000000     
   1.7983404138956723E-003   1.2768343731930283E-003   0.0000000000000000     
   3.6213519915079574E-003   2.9391588790985716E-003   0.0000000000000000     
   5.4690347328368557E-003   4.9869735177166304E-003   0.0000000000000000     
   7.3413886378823666E-003   7.4202782890472052E-003   0.0000000000000000     
   1.2195324204128508E-002   9.2290329964351877E-003   0.0000000000000000     
   1.5427673300133567E-002   1.2371583888994613E-002   0.0000000000000000     
   1.8577066414820816E-002   1.5684955399046567E-002   0.0000000000000000     
   2.1643503548190252E-002   1.9169147526591050E-002   0.0000000000000000     
   2.4626984700241876E-002   2.2824160271628063E-002   0.0000000000000000     
   1.0855722669837907E-002   8.6287249072383963E-003   0.0000000000000000     
   1.3688982886553446E-002   1.1650739751688788E-002   0.0000000000000000     
   1.6484651276749612E-002   1.4887057424406765E-002   0.0000000000000000     
   1.9242727840426407E-002   1.8337677925392336E-002   0.0000000000000000     
   2.1963212577583831E-002   2.2002601254645492E-002   0.0000000000000000     
   9.6001995640333498E-003   8.1271630929414702E-003   0.0000000000000000     
   1.2076601415623944E-002   1.1046303322563858E-002   0.0000000000000000     
   1.4545921214824493E-002   1.4212545501837648E-002   0.0000000000000000     
   1.7008158961634996E-002   1.7625889630762837E-002   0.0000000000000000     
   1.9463314656055452E-002   2.1286335709339427E-002   0.0000000000000000     
   8.4287548867148353E-003   7.7243475535444068E-003   0.0000000000000000     
   1.0590528887345069E-002   1.0558274601619819E-002   0.0000000000000000     
   1.2760876229045464E-002   1.3661419631339202E-002   0.0000000000000000     
   1.4939796911816024E-002   1.7033782642702555E-002   0.0000000000000000     
   1.7127290935656746E-002   2.0675363635709869E-002   0.0000000000000000     
   7.3413886378823666E-003   7.4202782890472052E-003   0.0000000000000000     
   9.2307653017168131E-003   1.0186653588856681E-002   0.0000000000000000     
   1.1129516319412521E-002   1.3233679812911439E-002   0.0000000000000000     
   1.3037641690969487E-002   1.6561356961211488E-002   0.0000000000000000     
   1.4955141416387709E-002   2.0169685033756816E-002   0.0000000000000000     
   2.4626984700241876E-002   2.2824160271628063E-002   0.0000000000000000     
   2.7531651858712224E-002   2.6672721858369889E-002   0.0000000000000000     