 <VTKFile type="UnstructuredGrid"  version="0.1"   >
 <UnstructuredGrid>
 <Piece  NumberOfPoints="          1600 "  NumberOfCells="         1024 ">
 <Points>
 <DataArray  type="Float64" NumberOfComponents="3"  format="ascii" >
   0.0000000000000000        0.0000000000000000        0.0000000000000000     
   3.1250000000000000E-002   0.0000000000000000        0.0000000000000000     
   6.2500000000000000E-002   0.0000000000000000        0.0000000000000000     
   9.3750000000000000E-002   0.0000000000000000        0.0000000000000000     
  0.12500000000000000        0.0000000000000000        0.0000000000000000     
   0.0000000000000000        3.1250000000000000E-002   0.0000000000000000     
   3.1250000000000000E-002   3.1250000000000000E-002   0.0000000000000000     
   6.2500000000000000E-002   3.1250000000000000E-002   0.0000000000000000     
   9.3750000000000000E-002   3.1250000000000000E-002   0.0000000000000000     
  0.12500000000000000        3.1250000000000000E-002   0.0000000000000000     
   0.0000000000000000        6.2500000000000000E-002   0.0000000000000000     
   3.1250000000000000E-002   6.2500000000000000E-002   0.0000000000000000     
   6.2500000000000000E-002   6.2500000000000000E-002   0.0000000000000000     
   9.3750000000000000E-002   6.2500000000000000E-002   0.0000000000000000     
  0.12500000000000000        6.2500000000000000E-002   0.0000000000000000     
   0.0000000000000000        9.3750000000000000E-002   0.0000000000000000     
   3.1250000000000000E-002   9.3750000000000000E-002   0.0000000000000000     
   6.2500000000000000E-002   9.3750000000000000E-002   0.0000000000000000     
   9.3750000000000000E-002   9.3750000000000000E-002   0.0000000000000000     
  0.12500000000000000        9.3750000000000000E-002   0.0000000000000000     
   0.0000000000000000       0.12500000000000000        0.0000000000000000     
   3.1250000000000000E-002  0.12500000000000000        0.0000000000000000     
   6.2500000000000000E-002  0.12500000000000000        0.0000000000000000     
   9.3750000000000000E-002  0.12500000000000000        0.0000000000000000     
  0.12500000000000000       0.12500000000000000        0.0000000000000000     
  0.12500000000000000        0.0000000000000000        0.0000000000000000     
  0.15625000000000000        0.0000000000000000        0.0000000000000000     
  0.18750000000000000        0.0000000000000000        0.0000000000000000     
  0.21875000000000000        0.0000000000000000        0.0000000000000000     
  0.25000000000000000        0.0000000000000000        0.0000000000000000     
  0.12500000000000000        3.1250000000000000E-002   0.0000000000000000     
  0.15625000000000000        3.1250000000000000E-002   0.0000000000000000     
  0.18750000000000000        3.1250000000000000E-002   0.0000000000000000     
  0.21875000000000000        3.1250000000000000E-002   0.0000000000000000     
  0.25000000000000000        3.1250000000000000E-002   0.0000000000000000     
  0.12500000000000000        6.2500000000000000E-002   0.0000000000000000     
  0.15625000000000000        6.2500000000000000E-002   0.0000000000000000     
  0.18750000000000000        6.2500000000000000E-002   0.0000000000000000     
  0.21875000000000000        6.2500000000000000E-002   0.0000000000000000     
  0.25000000000000000        6.2500000000000000E-002   0.0000000000000000     
  0.12500000000000000        9.3750000000000000E-002   0.0000000000000000     
  0.15625000000000000        9.3750000000000000E-002   0.0000000000000000     
  0.18750000000000000        9.3750000000000000E-002   0.0000000000000000     
  0.21875000000000000        9.3750000000000000E-002   0.0000000000000000     
  0.25000000000000000        9.3750000000000000E-002   0.0000000000000000     
  0.12500000000000000       0.12500000000000000        0.0000000000000000     
  0.15625000000000000       0.12500000000000000        0.0000000000000000     
  0.18750000000000000       0.12500000000000000        0.0000000000000000     
  0.21875000000000000       0.12500000000000000        0.0000000000000000     
  0.25000000000000000       0.12500000000000000        0.0000000000000000     
  0.25000000000000000        0.0000000000000000        0.0000000000000000     
  0.28125000000000000        0.0000000000000000        0.0000000000000000     
  0.31250000000000000        0.0000000000000000        0.0000000000000000     
  0.34375000000000000        0.0000000000000000        0.0000000000000000     
  0.37500000000000000        0.0000000000000000        0.0000000000000000     
  0.25000000000000000        3.1250000000000000E-002   0.0000000000000000     
  0.28125000000000000        3.1250000000000000E-002   0.0000000000000000     
  0.31250000000000000        3.1250000000000000E-002   0.0000000000000000     
  0.34375000000000000        3.1250000000000000E-002   0.0000000000000000     
  0.37500000000000000        3.1250000000000000E-002   0.0000000000000000     
  0.25000000000000000        6.2500000000000000E-002   0.0000000000000000     
  0.28125000000000000        6.2500000000000000E-002   0.0000000000000000     
  0.31250000000000000        6.2500000000000000E-002   0.0000000000000000     
  0.34375000000000000        6.2500000000000000E-002   0.0000000000000000     
  0.37500000000000000        6.2500000000000000E-002   0.0000000000000000     
  0.25000000000000000        9.3750000000000000E-002   0.0000000000000000     
  0.28125000000000000        9.3750000000000000E-002   0.0000000000000000     
  0.31250000000000000        9.3750000000000000E-002   0.0000000000000000     
  0.34375000000000000        9.3750000000000000E-002   0.0000000000000000     
  0.37500000000000000        9.3750000000000000E-002   0.0000000000000000     
  0.25000000000000000       0.12500000000000000        0.0000000000000000     
  0.28125000000000000       0.12500000000000000        0.0000000000000000     
  0.31250000000000000       0.12500000000000000        0.0000000000000000     
  0.34375000000000000       0.12500000000000000        0.0000000000000000     
  0.37500000000000000       0.12500000000000000        0.0000000000000000     
  0.37500000000000000        0.0000000000000000        0.0000000000000000     
  0.40625000000000000        0.0000000000000000        0.0000000000000000     
  0.43750000000000000        0.0000000000000000        0.0000000000000000     
  0.46875000000000000        0.0000000000000000        0.0000000000000000     
  0.50000000000000000        0.0000000000000000        0.0000000000000000     
  0.37500000000000000        3.1250000000000000E-002   0.0000000000000000     
  0.40625000000000000        3.1250000000000000E-002   0.0000000000000000     
  0.43750000000000000        3.1250000000000000E-002   0.0000000000000000     
  0.46875000000000000        3.1250000000000000E-002   0.0000000000000000     
  0.50000000000000000        3.1250000000000000E-002   0.0000000000000000     
  0.37500000000000000        6.2500000000000000E-002   0.0000000000000000     
  0.40625000000000000        6.2500000000000000E-002   0.0000000000000000     
  0.43750000000000000        6.2500000000000000E-002   0.0000000000000000     
  0.46875000000000000        6.2500000000000000E-002   0.0000000000000000     
  0.50000000000000000        6.2500000000000000E-002   0.0000000000000000     
  0.37500000000000000        9.3750000000000000E-002   0.0000000000000000     
  0.40625000000000000        9.3750000000000000E-002   0.0000000000000000     
  0.43750000000000000        9.3750000000000000E-002   0.0000000000000000     
  0.46875000000000000        9.3750000000000000E-002   0.0000000000000000     
  0.50000000000000000        9.3750000000000000E-002   0.0000000000000000     
  0.37500000000000000       0.12500000000000000        0.0000000000000000     
  0.40625000000000000       0.12500000000000000        0.0000000000000000     
  0.43750000000000000       0.12500000000000000        0.0000000000000000     
  0.46875000000000000       0.12500000000000000        0.0000000000000000     
  0.50000000000000000       0.12500000000000000        0.0000000000000000     
  0.50000000000000000        0.0000000000000000        0.0000000000000000     
  0.53125000000000000        0.0000000000000000        0.0000000000000000     
  0.56250000000000000        0.0000000000000000        0.0000000000000000     
  0.59375000000000000        0.0000000000000000        0.0000000000000000     
  0.62500000000000000        0.0000000000000000        0.0000000000000000     
  0.50000000000000000        3.1250000000000000E-002   0.0000000000000000     
  0.53125000000000000        3.1250000000000000E-002   0.0000000000000000     
  0.56250000000000000        3.1250000000000000E-002   0.0000000000000000     
  0.59375000000000000        3.1250000000000000E-002   0.0000000000000000     
  0.62500000000000000        3.1250000000000000E-002   0.0000000000000000     
  0.50000000000000000        6.2500000000000000E-002   0.0000000000000000     
  0.53125000000000000        6.2500000000000000E-002   0.0000000000000000     
  0.56250000000000000        6.2500000000000000E-002   0.0000000000000000     
  0.59375000000000000        6.2500000000000000E-002   0.0000000000000000     
  0.62500000000000000        6.2500000000000000E-002   0.0000000000000000     
  0.50000000000000000        9.3750000000000000E-002   0.0000000000000000     
  0.53125000000000000        9.3750000000000000E-002   0.0000000000000000     
  0.56250000000000000        9.3750000000000000E-002   0.0000000000000000     
  0.59375000000000000        9.3750000000000000E-002   0.0000000000000000     
  0.62500000000000000        9.3750000000000000E-002   0.0000000000000000     
  0.50000000000000000       0.12500000000000000        0.0000000000000000     
  0.53125000000000000       0.12500000000000000        0.0000000000000000     
  0.56250000000000000       0.12500000000000000        0.0000000000000000     
[...]
 <PointData>
 <DataArray  type="Float64" Name="disp" NumberOfComponents="3" format="ascii">
   0.0000000000000000        0.0000000000000000        0.0000000000000000     
   6.0958448543847717E-003   3.7904780946495633E-003   0.0000000000000000     
   1.1665815452025328E-002   7.3238636596491217E-003   0.0000000000000000     
   1.6709911792921670E-002   1.0600156694998674E-002   0.0000000000000000     
   2.1228133877073795E-002   1.3619357200698224E-002   0.0000000000000000     
   0.0000000000000000        0.0000000000000000        0.0000000000000000     
   4.8911330838365685E-003   3.0221534613985063E-003   0.0000000000000000     
   9.5735682258470695E-003   6.0605222858710010E-003   0.0000000000000000     
   1.4047305426031505E-002   9.1151064734174836E-003   0.0000000000000000     
   1.8312344684389872E-002   1.2185906024037955E-002   0.0000000000000000     
   0.0000000000000000        0.0000000000000000        0.0000000000000000     
   3.9536052607430025E-003   2.4251016327978747E-003   0.0000000000000000     
   7.9106279772754723E-003   5.0628673856808531E-003   0.0000000000000000     
   1.1871068149597409E-002   7.9132972586489353E-003   0.0000000000000000     
   1.5834925777708814E-002   1.0976391251702121E-002   0.0000000000000000     
   0.0000000000000000        0.0000000000000000        0.0000000000000000     
   3.2832613851040762E-003   1.9993226088476689E-003   0.0000000000000000     
   6.6769947063105382E-003   4.3308989590786781E-003   0.0000000000000000     
   1.0181199963619386E-002   6.9947290506930278E-003   0.0000000000000000     
   1.3795877157030623E-002   9.9908128836907160E-003   0.0000000000000000     
   0.0000000000000000        0.0000000000000000        0.0000000000000000     
   2.8801014569197871E-003   1.7448163895478885E-003   0.0000000000000000     
   5.8726684129522654E-003   3.8646170060644761E-003   0.0000000000000000     
   8.9777008680974324E-003   6.3594018495497610E-003   0.0000000000000000     
   1.2195198822355292E-002   9.2291709200037469E-003   0.0000000000000000     
   2.1228133877073795E-002   1.3619357200698224E-002   0.0000000000000000     
   2.5433273390582205E-002   1.6612192741924693E-002   0.0000000000000000     
   2.9538122019547402E-002   1.9809390883855017E-002   0.0000000000000000     
   3.3542679763969373E-002   2.3210951626489194E-002   0.0000000000000000     
   3.7446946623848135E-002   2.6816874969827223E-002   0.0000000000000000     
   1.8312344684389872E-002   1.2185906024037955E-002   0.0000000000000000     
   2.2406936429978260E-002   1.5341312809536571E-002   0.0000000000000000     
   2.6369331091852747E-002   1.8649718701717485E-002   0.0000000000000000     
   3.0199528670013336E-002   2.2111123700580698E-002   0.0000000000000000     
   3.3897529164460025E-002   2.5725527806126216E-002   0.0000000000000000     
   1.5834925777708814E-002   1.0976391251702121E-002   0.0000000000000000     
   1.9730525494602968E-002   1.4210949358078415E-002   0.0000000000000000     
   2.3486191933273146E-002   1.7575771571015829E-002   0.0000000000000000     
   2.7101925093719354E-002   2.1070857890514362E-002   0.0000000000000000     
   3.0577724975941585E-002   2.4696208316574007E-002   0.0000000000000000     
   1.3795877157030623E-002   9.9908128836907160E-003   0.0000000000000000     
   1.7404040584456330E-002   1.3221102387550230E-002   0.0000000000000000     
   2.0888704543808600E-002   1.6587549491750050E-002   0.0000000000000000     
   2.4249869035087433E-002   2.0090154196290171E-002   0.0000000000000000     
   2.7487534058292830E-002   2.3728916501170604E-002   0.0000000000000000     
   1.2195198822355292E-002   9.2291709200037469E-003   0.0000000000000000     
   1.5427481699538347E-002   1.2371771897952013E-002   0.0000000000000000     
   1.8576868923459108E-002   1.5685052463920143E-002   0.0000000000000000     
   2.1643360494117577E-002   1.9169012617908137E-002   0.0000000000000000     
   2.4626956411513749E-002   2.2823652359915996E-002   0.0000000000000000     
   3.7446946623848135E-002   2.6816874969827223E-002   0.0000000000000000     
   4.1255448944825558E-002   3.0622098266133657E-002   0.0000000000000000     
   4.4972713072543524E-002   3.4621558867673055E-002   0.0000000000000000     
   4.8598739007002019E-002   3.8815256774445417E-002   0.0000000000000000     
   5.2133526748201070E-002   4.3203191986450742E-002   0.0000000000000000     
   3.3897529164460025E-002   2.5725527806126216E-002   0.0000000000000000     
   3.7486413309012860E-002   2.9521576651558388E-002   0.0000000000000000     
   4.0989261837491901E-002   3.3527915870081575E-002   0.0000000000000000     
   4.4406074749897134E-002   3.7744545461695776E-002   0.0000000000000000     
   4.7736852046228573E-002   4.2171465426400982E-002   0.0000000000000000     
   3.0577724975941585E-002   2.4696208316574007E-002   0.0000000000000000     
   3.3942777094952900E-002   2.8496373846205292E-002   0.0000000000000000     
   3.7226266965766357E-002   3.2515905476418736E-002   0.0000000000000000     
   4.0428194588381962E-002   3.6754803207214345E-002   0.0000000000000000     
   4.3548559962799695E-002   4.1213067038592101E-002   0.0000000000000000     
   2.7487534058292830E-002   2.3728916501170604E-002   0.0000000000000000     
   3.0624540302645685E-002   2.7546489850074379E-002   0.0000000000000000     
   3.3683728457366904E-002   3.1585527686684559E-002   0.0000000000000000     
   3.6665098522456488E-002   3.5846030011001132E-002   0.0000000000000000     
   3.9568650497914422E-002   4.0327996823024105E-002   0.0000000000000000     
   2.4626956411513749E-002   2.2823652359915996E-002   0.0000000000000000     
   2.7531702932091204E-002   2.6671924663165650E-002   0.0000000000000000     
   3.0361646312293530E-002   3.0736782500879033E-002   0.0000000000000000     
   3.3116786552120719E-002   3.5018225873056141E-002   0.0000000000000000     
   3.5797123651572768E-002   3.9516254779696988E-002   0.0000000000000000     
   5.2133526748201070E-002   4.3203191986450742E-002   0.0000000000000000     
   5.5574191627477135E-002   4.7791211426753730E-002   0.0000000000000000     
   5.8917848976166705E-002   5.2585162018419070E-002   0.0000000000000000     
   6.2164498794269787E-002   5.7585043761446769E-002   0.0000000000000000     
   6.5314141081786375E-002   6.2790856655836808E-002   0.0000000000000000     
   4.7736852046228573E-002   4.2171465426400982E-002   0.0000000000000000     
   5.0977811165336048E-002   4.6802989449286132E-002   0.0000000000000000     
   5.4125169546069385E-002   5.1633431215440125E-002   0.0000000000000000     
   5.7178927188428583E-002   5.6662790724862980E-002   0.0000000000000000     
   6.0139084092413655E-002   6.1891067977554663E-002   0.0000000000000000     
   4.3548559962799695E-002   4.1213067038592101E-002   0.0000000000000000     
   4.6583746678597986E-002   4.5878521751563636E-002   0.0000000000000000     
   4.9530138325355265E-002   5.0738992127140517E-002   0.0000000000000000     
   5.2387734903071491E-002   5.5794478165322778E-002   0.0000000000000000     
   5.5156536411746705E-002   6.1044979866110384E-002   0.0000000000000000     
   3.9568650497914422E-002   4.0327996823024105E-002   0.0000000000000000     
   4.2391998167262961E-002   4.5017808333586221E-002   0.0000000000000000     
   4.5132755314024331E-002   4.9901844753520254E-002   0.0000000000000000     
   4.7790921938198519E-002   5.4980106082826156E-002   0.0000000000000000     
   5.0366498039785532E-002   6.0252592321503977E-002   0.0000000000000000     
   3.5797123651572768E-002   3.9516254779696988E-002   0.0000000000000000     
   3.8402565631330973E-002   4.4220849195353913E-002   0.0000000000000000     
   4.0933020512076590E-002   4.9121989094579294E-002   0.0000000000000000     
   4.3388488293809660E-002   5.4219674477373150E-002   0.0000000000000000     
   4.5768968976530135E-002   5.9513905343735449E-002   0.0000000000000000     
   6.5314141081786375E-002   6.2790856655836808E-002   0.0000000000000000     
   6.8369948700624281E-002   6.8187455098684596E-002   0.0000000000000000     
   7.1335094512691308E-002   7.3759693487085526E-002   0.0000000000000000     
   7.4209578517987457E-002   7.9507571821039569E-002   0.0000000000000000     
   7.6993400716512728E-002   8.5431090100546753E-002   0.0000000000000000     
   6.0139084092413655E-002   6.1891067977554663E-002   0.0000000000000000     
   6.3009857217447771E-002   6.7308425681549572E-002   0.0000000000000000     
   6.5795463522954109E-002   7.2905026544882068E-002   0.0000000000000000     
   6.8495903008932657E-002   7.8680870567552130E-002   0.0000000000000000     
   7.1111175675383442E-002   8.4635957749559815E-002   0.0000000000000000     
   5.5156536411746705E-002   6.1044979866110384E-002   0.0000000000000000     
   5.7840944562349422E-002   6.6483768336868934E-002   0.0000000000000000     
   6.0445361065848177E-002   7.2104114684963930E-002   0.0000000000000000     
   6.2969785922242963E-002   7.7906018910395419E-002   0.0000000000000000     
   6.5414219131533821E-002   8.3889481013163375E-002   0.0000000000000000     
   5.0366498039785532E-002   6.0252592321503977E-002   0.0000000000000000     
   5.2863210735329257E-002   6.5713483064642655E-002   0.0000000000000000     
   5.5284787141373547E-002   7.1356957907331126E-002   0.0000000000000000     
   5.7631227257918409E-002   7.7183016849569380E-002   0.0000000000000000     
   5.9902531084963843E-002   8.3191659891357461E-002   0.0000000000000000     
   4.5768968976530135E-002   5.9513905343735449E-002   0.0000000000000000     
   4.8076655736387246E-002   6.4997569864870763E-002   0.0000000000000000     
   5.0313741749530190E-002   7.0663556211983627E-002   0.0000000000000000     
   5.2480227015958947E-002   7.6511864385074069E-002   0.0000000000000000     
   5.4576111535673537E-002   8.2542494384142059E-002   0.0000000000000000     
   7.6993400716512728E-002   8.5431090100546753E-002   0.0000000000000000     
   7.9678559650627312E-002   9.1520169836835225E-002   0.0000000000000000     
   8.2257053862691401E-002   9.7764732541133131E-002   0.0000000000000000     
   8.4728883352705009E-002  0.10416477821344047        0.0000000000000000     
   8.7094048120668108E-002  0.11072030685375724        0.0000000000000000     
   7.1111175675383442E-002   8.4635957749559815E-002   0.0000000000000000     
   7.3633349408108617E-002   9.0758583904675810E-002   0.0000000000000000     
   7.6054492092910389E-002   9.7037044846670945E-002   0.0000000000000000     
   7.8374603729788717E-002  0.10347134057554523        0.0000000000000000     
   8.0593684318743627E-002  0.11006147109129864        0.0000000000000000     
   6.5414219131533821E-002   8.3889481013163375E-002   0.0000000000000000     
   6.7771263128218295E-002   9.0041837613289127E-002   0.0000000000000000     
   7.0033520346794054E-002   9.6350425330794048E-002   0.0000000000000000     
   7.2200990787261055E-002  0.10281524416567812        0.0000000000000000     
   7.4273674449619312E-002  0.10943629411794138        0.0000000000000000     
   5.9902531084963843E-002   8.3191659891357461E-002   0.0000000000000000     
   6.2092300810956347E-002   8.9369930962675176E-002   0.0000000000000000     
   6.4194138624342395E-002   9.5704873993502415E-002   0.0000000000000000     
   6.6208044525121995E-002  0.10219648898383919        0.0000000000000000     
   6.8134018513295147E-002  0.10884477593368547        0.0000000000000000     
   5.4576111535673537E-002   8.2542494384142059E-002   0.0000000000000000     
   5.6596462456322758E-002   8.8742863952833942E-002   0.0000000000000000     
   5.8536346925555427E-002   9.5100390834796045E-002   0.0000000000000000     
   6.0395764943371552E-002  0.10161507503002835        0.0000000000000000     
   6.2174716509771140E-002  0.10828691653853091        0.0000000000000000     
   8.7094048120668108E-002  0.11072030685375724        0.0000000000000000     
   8.9367991815123657E-002  0.11743010521727289        0.0000000000000000     
   9.1566158084614546E-002  0.12429296005917691        0.0000000000000000     
   9.3688546929140831E-002  0.13130887137946923        0.0000000000000000     
   9.5735158348702470E-002  0.13847783917814990        0.0000000000000000     
   8.0593684318743627E-002  0.11006147109129864        0.0000000000000000     
   8.2726220421794963E-002  0.11680107769197889        0.0000000000000000     
   8.4786698600962523E-002  0.12368380167563371        0.0000000000000000     
   8.6775118856246281E-002  0.13070964304226312        0.0000000000000000     
   8.8691481187646304E-002  0.13787860179186712        0.0000000000000000     
   7.4273674449619312E-002  0.10943629411794138        0.0000000000000000     
   7.6264574843305219E-002  0.11620327548033969        0.0000000000000000     
   7.8186695477755086E-002  0.12310588854562901        0.0000000000000000     
   8.0040036352968996E-002  0.13014413331380931        0.0000000000000000     
   8.1824597468946852E-002  0.13731800978488062        0.0000000000000000     
   6.8134018513295147E-002  0.10884477593368547        0.0000000000000000     
   6.9983055079654397E-002  0.11563669858235531        0.0000000000000000     
   7.1766148714992317E-002  0.12255922066916275        0.0000000000000000     
   7.3483299419308881E-002  0.12961234219410780        0.0000000000000000     
   7.5134507192604089E-002  0.13679606315719045        0.0000000000000000     
   6.2174716509771140E-002  0.10828691653853091        0.0000000000000000     
   6.3881661130842551E-002  0.11510134699802574        0.0000000000000000     
   6.5525058312674175E-002  0.12204379804623494        0.0000000000000000     
   6.7104908055265991E-002  0.12911426968315862        0.0000000000000000     
   6.8621210358618026E-002  0.13631276190879657        0.0000000000000000     
   9.5735158348702470E-002  0.13847783917814990        0.0000000000000000     
   9.7679737368012498E-002  0.14574106522521221        0.0000000000000000     
   9.9496029011783921E-002  0.15303975129064942        0.0000000000000000     
  0.10118403328001675       0.16037389737446159        0.0000000000000000     
  0.10274375017271099       0.16774350347664865        0.0000000000000000     
   8.8691481187646304E-002  0.13787860179186712        0.0000000000000000     
   9.0516733444035533E-002  0.14516242065576582        0.0000000000000000     
   9.2231823474286961E-002  0.15253284236527942        0.0000000000000000     
   9.3836751278400576E-002  0.15998986692040784        0.0000000000000000     
   9.5331516856376391E-002  0.16753349432115117        0.0000000000000000     
   8.1824597468946852E-002  0.13731800978488062        0.0000000000000000     
   8.3526774343757548E-002  0.14461917208820715        0.0000000000000000     
   8.5132962495469908E-002  0.15203927435315309        0.0000000000000000     
   8.6643161924083903E-002  0.15957831657971844        0.0000000000000000     
   8.8057372629599562E-002  0.16723629876790322        0.0000000000000000     
   7.5134507192604089E-002  0.13679606315719045        0.0000000000000000     
   7.6709860067178517E-002  0.14411131952253617        0.0000000000000000     
   7.8199446075332732E-002  0.15155904725427047        0.0000000000000000     
   7.9603265217066732E-002  0.15913924635239335        0.0000000000000000     
   8.0921317492380504E-002  0.16685191681690481        0.0000000000000000     
   6.8621210358618026E-002  0.13631276190879657        0.0000000000000000     
   7.0065990614298454E-002  0.14363886295875292        0.0000000000000000     
   7.1431274213875448E-002  0.15109216106863158        0.0000000000000000     
   7.2717061157349022E-002  0.15867265623843260        0.0000000000000000     
   7.3923351444719176E-002  0.16638034846815594        0.0000000000000000     
   0.0000000000000000        0.0000000000000000        0.0000000000000000     
   2.8801014569197871E-003   1.7448163895478885E-003   0.0000000000000000     
   5.8726684129522654E-003   3.8646170060644761E-003   0.0000000000000000     
   8.9777008680974324E-003   6.3594018495497610E-003   0.0000000000000000     
   1.2195198822355292E-002   9.2291709200037469E-003   0.0000000000000000     
   0.0000000000000000        0.0000000000000000        0.0000000000000000     
   2.6103140144771277E-003   1.5889161623232370E-003   0.0000000000000000     
   5.2897067371692735E-003   3.5566982090466655E-003   0.0000000000000000     
   8.0381781680764382E-003   5.9033461401702863E-003   0.0000000000000000     
   1.0855728307198623E-002   8.6288599556940977E-003   0.0000000000000000     
   0.0000000000000000        0.0000000000000000        0.0000000000000000     
   2.3400875960630872E-003   1.4589551145984176E-003   0.0000000000000000     
   4.7201673189301843E-003   3.2998192504336676E-003   0.0000000000000000     
   7.1402391686012923E-003   5.5225924075057494E-003   0.0000000000000000     
   9.6003031450764085E-003   8.1272745858146627E-003   0.0000000000000000     
   0.0000000000000000        0.0000000000000000        0.0000000000000000     
   2.0694222016776646E-003   1.3549332463734308E-003   0.0000000000000000     
   4.1640501582349962E-003   3.0939801302254807E-003   0.0000000000000000     
   6.2838838696719903E-003   5.2171406515561514E-003   0.0000000000000000     
   8.4289233359886532E-003   7.7244148103654394E-003   0.0000000000000000     
   0.0000000000000000        0.0000000000000000        0.0000000000000000     
   1.7983178313208624E-003   1.2768505576482760E-003   0.0000000000000000     
   3.6213552550837086E-003   2.9391808484221064E-003   0.0000000000000000     
   5.4691122712885376E-003   4.9869908723214913E-003   0.0000000000000000     
   7.3415888799353516E-003   7.4202806293464296E-003   0.0000000000000000     
   1.2195198822355292E-002   9.2291709200037469E-003   0.0000000000000000     
   1.5427481699538347E-002   1.2371771897952013E-002   0.0000000000000000     
   1.8576868923459108E-002   1.5685052463920143E-002   0.0000000000000000     
   2.1643360494117577E-002   1.9169012617908137E-002   0.0000000000000000     
   2.4626956411513749E-002   2.2823652359915996E-002   0.0000000000000000     
   1.0855728307198623E-002   8.6288599556940977E-003   0.0000000000000000     
   1.3689008992804808E-002   1.1650896311130357E-002   0.0000000000000000     
   1.6484672063163983E-002   1.4887111861991318E-002   0.0000000000000000     
   1.9242717518276147E-002   1.8337506608276981E-002   0.0000000000000000     
   2.1963145358141294E-002   2.2002080549987348E-002   0.0000000000000000     
   9.6003031450764085E-003   8.1272745858146627E-003   0.0000000000000000     
   1.2076782617211502E-002   1.1046414048931854E-002   0.0000000000000000     
   1.4546100953862530E-002   1.4212559060428783E-002   0.0000000000000000     
   1.7008258155029498E-002   1.7625709620305432E-002   0.0000000000000000     
   1.9463254220712399E-002   2.1285865728561816E-002   0.0000000000000000     
   8.4289233359886532E-003   7.7244148103654394E-003   0.0000000000000000     
   1.0590802572758422E-002   1.0558325111356511E-002   0.0000000000000000     
   1.2761155595554753E-002   1.3661394059232529E-002   0.0000000000000000     
   1.4939982404377638E-002   1.7033621653993494E-002   0.0000000000000000     
   1.7127282999227077E-002   2.0675007895639402E-002   0.0000000000000000     
   7.3415888799353516E-003   7.4202806293464296E-003   0.0000000000000000     
   9.2310688594455775E-003   1.0186629498404320E-002   0.0000000000000000     
   1.1129835988240647E-002   1.3233616858402564E-002   0.0000000000000000     
   1.3037890266320563E-002   1.6561242709341159E-002   0.0000000000000000     
   1.4955231693685320E-002   2.0169507051220101E-002   0.0000000000000000     
   2.4626956411513749E-002   2.2823652359915996E-002   0.0000000000000000     
   2.7531702932091204E-002   2.6671924663165650E-002   0.0000000000000000     