 <VTKFile type="UnstructuredGrid"  version="0.1"   >
 <UnstructuredGrid>
 <Piece  NumberOfPoints="          1600 "  NumberOfCells="         1024 ">
 <Points>
 <DataArray  type="Float64" NumberOfComponents="3"  format="ascii" >
   0.0000000000000000        0.0000000000000000        0.0000000000000000     
   3.1250000000000000E-002   0.0000000000000000        0.0000000000000000     
   6.2500000000000000E-002   0.0000000000000000        0.0000000000000000     
   9.3750000000000000E-002   0.0000000000000000        0.0000000000000000     
  0.12500000000000000        0.0000000000000000        0.0000000000000000     
   0.0000000000000000        3.1250000000000000E-002   0.0000000000000000     
   3.1250000000000000E-002   3.1250000000000000E-002   0.0000000000000000     
   6.2500000000000000E-002   3.1250000000000000E-002   0.0000000000000000     
   9.3750000000000000E-002   3.1250000000000000E-002   0.0000000000000000     
  0.12500000000000000        3.1250000000000000E-002   0.0000000000000000     
   0.0000000000000000        6.2500000000000000E-002   0.0000000000000000     
   3.1250000000000000E-002   6.2500000000000000E-002   0.0000000000000000     
   6.2500000000000000E-002   6.2500000000000000E-002   0.0000000000000000     
   9.3750000000000000E-002   6.2500000000000000E-002   0.0000000000000000     
  0.12500000000000000        6.2500000000000000E-002   0.0000000000000000     
   0.0000000000000000        9.3750000000000000E-002   0.0000000000000000     
   3.1250000000000000E-002   9.3750000000000000E-002   0.0000000000000000     
   6.2500000000000000E-002   9.3750000000000000E-002   0.0000000000000000     
   9.3750000000000000E-002   9.3750000000000000E-002   0.0000000000000000     
  0.12500000000000000        9.3750000000000000E-002   0.0000000000000000     
   0.0000000000000000       0.12500000000000000        0.0000000000000000     
   3.1250000000000000E-002  0.12500000000000000        0.0000000000000000     
   6.2500000000000000E-002  0.12500000000000000        0.0000000000000000     
   9.3750000000000000E-002  0.12500000000000000        0.0000000000000000     
  0.12500000000000000       0.12500000000000000        0.0000000000000000     
  0.12500000000000000        0.0000000000000000        0.0000000000000000     
  0.15625000000000000        0.0000000000000000        0.0000000000000000     
  0.18750000000000000        0.0000000000000000        0.0000000000000000     
  0.21875000000000000        0.0000000000000000        0.0000000000000000     
  0.25000000000000000        0.0000000000000000        0.0000000000000000     
  0.12500000000000000        3.1250000000000000E-002   0.0000000000000000     
  0.15625000000000000        3.1250000000000000E-002   0.0000000000000000     
  0.18750000000000000        3.1250000000000000E-002   0.0000000000000000     
  0.21875000000000000        3.1250000000000000E-002   0.0000000000000000     
  0.25000000000000000        3.1250000000000000E-002   0.0000000000000000     
  0.12500000000000000        6.2500000000000000E-002   0.0000000000000000     
  0.15625000000000000        6.2500000000000000E-002   0.0000000000000000     
  0.18750000000000000        6.2500000000000000E-002   0.0000000000000000     
  0.21875000000000000        6.2500000000000000E-002   0.0000000000000000     
  0.25000000000000000        6.2500000000000000E-002   0.0000000000000000     
  0.12500000000000000        9.3750000000000000E-002   0.0000000000000000     
  0.15625000000000000        9.3750000000000000E-002   0.0000000000000000     
  0.18750000000000000        9.3750000000000000E-002   0.0000000000000000     
  0.21875000000000000        9.3750000000000000E-002   0.0000000000000000     
  0.25000000000000000        9.3750000000000000E-002   0.0000000000000000     
  0.12500000000000000       0.12500000000000000        0.0000000000000000     
  0.15625000000000000       0.12500000000000000        0.0000000000000000     
  0.18750000000000000       0.12500000000000000        0.0000000000000000     
  0.21875000000000000       0.12500000000000000        0.0000000000000000     
  0.25000000000000000       0.12500000000000000        0.0000000000000000     
  0.25000000000000000        0.0000000000000000        0.0000000000000000     
  0.28125000000000000        0.0000000000000000        0.0000000000000000     
  0.31250000000000000        0.0000000000000000        0.0000000000000000     
  0.34375000000000000        0.0000000000000000        0.0000000000000000     
  0.37500000000000000        0.0000000000000000        0.0000000000000000     
  0.25000000000000000        3.1250000000000000E-002   0.0000000000000000     
  0.28125000000000000        3.1250000000000000E-002   0.0000000000000000     
  0.31250000000000000        3.1250000000000000E-002   0.0000000000000000     
  0.34375000000000000        3.1250000000000000E-002   0.0000000000000000     
  0.37500000000000000        3.1250000000000000E-002   0.0000000000000000     
  0.25000000000000000        6.2500000000000000E-002   0.0000000000000000     
  0.28125000000000000        6.2500000000000000E-002   0.0000000000000000     
  0.31250000000000000        6.2500000000000000E-002   0.0000000000000000     
  0.34375000000000000        6.2500000000000000E-002   0.0000000000000000     
  0.37500000000000000        6.2500000000000000E-002   0.0000000000000000     
  0.25000000000000000        9.3750000000000000E-002   0.0000000000000000     
  0.28125000000000000        9.3750000000000000E-002   0.0000000000000000     
  0.31250000000000000        9.3750000000000000E-002   0.0000000000000000     
  0.34375000000000000        9.3750000000000000E-002   0.0000000000000000     
  0.37500000000000000        9.3750000000000000E-002   0.0000000000000000     
  0.25000000000000000       0.12500000000000000        0.0000000000000000     
  0.28125000000000000       0.12500000000000000        0.0000000000000000     
  0.31250000000000000       0.12500000000000000        0.0000000000000000     
  0.34375000000000000       0.12500000000000000        0.0000000000000000     
  0.37500000000000000       0.12500000000000000        0.0000000000000000     
  0.37500000000000000        0.0000000000000000        0.0000000000000000     
  0.40625000000000000        0.0000000000000000        0.0000000000000000     
  0.43750000000000000        0.0000000000000000        0.0000000000000000     
  0.46875000000000000        0.0000000000000000        0.0000000000000000     
  0.50000000000000000        0.0000000000000000        0.0000000000000000     
  0.37500000000000000        3.1250000000000000E-002   0.0000000000000000     
  0.40625000000000000        3.1250000000000000E-002   0.0000000000000000     
  0.43750000000000000        3.1250000000000000E-002   0.0000000000000000     
  0.46875000000000000        3.1250000000000000E-002   0.0000000000000000     
  0.50000000000000000        3.1250000000000000E-002   0.0000000000000000     
  0.37500000000000000        6.2500000000000000E-002   0.0000000000000000     
  0.40625000000000000        6.2500000000000000E-002   0.0000000000000000     
  0.43750000000000000        6.2500000000000000E-002   0.0000000000000000     
  0.46875000000000000        6.2500000000000000E-002   0.0000000000000000     
  0.50000000000000000        6.2500000000000000E-002   0.0000000000000000     
  0.37500000000000000        9.3750000000000000E-002   0.0000000000000000     
  0.40625000000000000        9.3750000000000000E-002   0.0000000000000000     
  0.43750000000000000        9.3750000000000000E-002   0.0000000000000000     
  0.46875000000000000        9.3750000000000000E-002   0.0000000000000000     
  0.50000000000000000        9.3750000000000000E-002   0.0000000000000000     
  0.37500000000000000       0.12500000000000000        0.0000000000000000     
  0.40625000000000000       0.12500000000000000        0.0000000000000000     
  0.43750000000000000       0.12500000000000000        0.0000000000000000     
  0.46875000000000000       0.12500000000000000        0.0000000000000000     
  0.50000000000000000       0.12500000000000000        0.0000000000000000     
  0.50000000000000000        0.0000000000000000        0.0000000000000000     
  0.53125000000000000        0.0000000000000000        0.0000000000000000     
  0.56250000000000000        0.0000000000000000        0.0000000000000000     
  0.59375000000000000        0.0000000000000000        0.0000000000000000     
  0.62500000000000000        0.0000000000000000        0.0000000000000000     
  0.50000000000000000        3.1250000000000000E-002   0.0000000000000000     
  0.53125000000000000        3.1250000000000000E-002   0.0000000000000000     
  0.56250000000000000        3.1250000000000000E-002   0.0000000000000000     
  0.59375000000000000        3.1250000000000000E-002   0.0000000000000000     
  0.62500000000000000        3.1250000000000000E-002   0.0000000000000000     
  0.50000000000000000        6.2500000000000000E-002   0.0000000000000000     
  0.53125000000000000        6.2500000000000000E-002   0.0000000000000000     
  0.56250000000000000        6.2500000000000000E-002   0.0000000000000000     
  0.59375000000000000        6.2500000000000000E-002   0.0000000000000000     
  0.62500000000000000        6.2500000000000000E-002   0.0000000000000000     
  0.50000000000000000        9.3750000000000000E-002   0.0000000000000000     
  0.53125000000000000        9.3750000000000000E-002   0.0000000000000000     
  0.56250000000000000        9.3750000000000000E-002   0.0000000000000000     
  0.59375000000000000        9.3750000000000000E-002   0.0000000000000000     
  0.62500000000000000        9.3750000000000000E-002   0.0000000000000000     
  0.50000000000000000       0.12500000000000000        0.0000000000000000     
  0.53125000000000000       0.12500000000000000        0.0000000000000000     
  0.56250000000000000       0.12500000000000000        0.0000000000000000     
[...]
 <PointData>
 <DataArray  type="Float64" Name="disp" NumberOfComponents="3" format="ascii">
   0.0000000000000000        0.0000000000000000        0.0000000000000000     
   6.0960779385106998E-003   3.7901357290373427E-003   0.0000000000000000     
   1.1666237800561516E-002   7.3236273956651223E-003   0.0000000000000000     
   1.6710479586152446E-002   1.0600474999883338E-002   0.0000000000000000     
   2.1228803295283486E-002   1.3620678541691989E-002   0.0000000000000000     
   0.0000000000000000        0.0000000000000000        0.0000000000000000     
   4.8911638645463317E-003   3.0218905751324527E-003   0.0000000000000000     
   9.5736852454160071E-003   6.0603587909602158E-003   0.0000000000000000     
   1.4047564142609027E-002   9.1154046474832880E-003   0.0000000000000000     
   1.8312800556125393E-002   1.2187028144701670E-002   0.0000000000000000     
   0.0000000000000000        0.0000000000000000        0.0000000000000000     
   3.9535124717545497E-003   2.4249295444124480E-003   0.0000000000000000     
   7.9105560460599102E-003   5.0627837311853687E-003   0.0000000000000000     
   1.1871130722916082E-002   7.9135625603187626E-003   0.0000000000000000     
   1.5835236502323061E-002   1.0977266031812630E-002   0.0000000000000000     
   0.0000000000000000        0.0000000000000000        0.0000000000000000     
   3.2831237601353563E-003   1.9992526368773286E-003   0.0000000000000000     
   6.6768502024932234E-003   4.3309022163405828E-003   0.0000000000000000     
   1.0181179327073603E-002   6.9949487383897634E-003   0.0000000000000000     
   1.3796111133876493E-002   9.9913922030248677E-003   0.0000000000000000     
   0.0000000000000000        0.0000000000000000        0.0000000000000000     
   2.8799977296887483E-003   1.7448598525270941E-003   0.0000000000000000     
   5.8725677147159466E-003   3.8647142464258567E-003   0.0000000000000000     
   8.9777099550815941E-003   6.3595631816962869E-003   0.0000000000000000     
   1.2195424450785692E-002   9.2294066583383846E-003   0.0000000000000000     
   2.1228803295283486E-002   1.3620678541691989E-002   0.0000000000000000     
   2.5433875951574439E-002   1.6614215290924515E-002   0.0000000000000000     
   2.9538364578645102E-002   1.9811062517414345E-002   0.0000000000000000     
   3.3542269176495478E-002   2.3211220221161490E-002   0.0000000000000000     
   3.7445589745125560E-002   2.6814688402165943E-002   0.0000000000000000     
   1.8312800556125393E-002   1.2187028144701670E-002   0.0000000000000000     
   2.2407511005594304E-002   1.5343016883863353E-002   0.0000000000000000     
   2.6369812010644974E-002   1.8651158466216327E-002   0.0000000000000000     
   3.0199703571277402E-002   2.2111452891760593E-002   0.0000000000000000     
   3.3897185687491581E-002   2.5723900160496152E-002   0.0000000000000000     
   1.5835236502323061E-002   1.0977266031812630E-002   0.0000000000000000     
   1.9731065764824265E-002   1.4212259286287209E-002   0.0000000000000000     
   2.3486810890963109E-002   1.7576907464362745E-002   0.0000000000000000     
   2.7102471880739592E-002   2.1071210566039233E-002   0.0000000000000000     
   3.0578048734153720E-002   2.4695168591316669E-002   0.0000000000000000     
   1.3796111133876493E-002   9.9913922030248677E-003   0.0000000000000000     
   1.7404540229264322E-002   1.3221942498196085E-002   0.0000000000000000     
   2.0889361219599511E-002   1.6588309511853590E-002   0.0000000000000000     
   2.4250574104882062E-002   2.0090493243997393E-002   0.0000000000000000     
   2.7488178885111972E-002   2.3728493694627494E-002   0.0000000000000000     
   1.2195424450785692E-002   9.2294066583383846E-003   0.0000000000000000     
   1.5427934398914473E-002   1.2372066519589974E-002   0.0000000000000000     
   1.8577462996554172E-002   1.5685364608688877E-002   0.0000000000000000     
   2.1644010243704798E-002   1.9169300925635093E-002   0.0000000000000000     
   2.4627576140366342E-002   2.2823875470428620E-002   0.0000000000000000     
   3.7445589745125560E-002   2.6814688402165943E-002   0.0000000000000000     
   4.1253863984333318E-002   3.0618426918345435E-002   0.0000000000000000     
   4.4972629593916728E-002   3.4619395627617698E-002   0.0000000000000000     
   4.8601886573875777E-002   3.8817594529982735E-002   0.0000000000000000     
   5.2141634924210478E-002   4.3213023625440536E-002   0.0000000000000000     
   3.3897185687491581E-002   2.5723900160496152E-002   0.0000000000000000     
   3.7485770539418692E-002   2.9518818897976706E-002   0.0000000000000000     
   4.0988970307189940E-002   3.3526527729755951E-002   0.0000000000000000     
   4.4406784990805290E-002   3.7747026655833883E-002   0.0000000000000000     
   4.7739214590264756E-002   4.2180315676210521E-002   0.0000000000000000     
   3.0578048734153720E-002   2.4695168591316669E-002   0.0000000000000000     
   3.3942799796820064E-002   2.8494588694412407E-002   0.0000000000000000     
   3.7225983414353209E-002   3.2515278029543772E-002   0.0000000000000000     
   4.0427599586753141E-002   3.6757236596710763E-002   0.0000000000000000     
   4.3547648314019881E-002   4.1220464395913391E-002   0.0000000000000000     
   2.7488178885111972E-002   2.3728493694627494E-002   0.0000000000000000     
   3.0624951756537410E-002   2.7545736307652526E-002   0.0000000000000000     
   3.3683668915406528E-002   3.1585646526981155E-002   0.0000000000000000     
   3.6664330361719344E-002   3.5848224352613360E-002   0.0000000000000000     
   3.9566936095475833E-002   4.0333469784549165E-002   0.0000000000000000     
   2.4627576140366342E-002   2.2823875470428620E-002   0.0000000000000000     
   2.7532226418570737E-002   2.6672261737697083E-002   0.0000000000000000     
   3.0362026810349919E-002   3.0737633222068107E-002   0.0000000000000000     
   3.3116977315703885E-002   3.5019989923541696E-002   0.0000000000000000     
   3.5797077934632632E-002   3.9519331842117825E-002   0.0000000000000000     
   5.2141634924210478E-002   4.3213023625440536E-002   0.0000000000000000     
   5.5583730949922958E-002   4.7806688065950655E-002   0.0000000000000000     
   5.8920030956015342E-002   5.2599593003472653E-002   0.0000000000000000     
   6.2150534942487651E-002   5.7591738438006516E-002   0.0000000000000000     
   6.5275242909339865E-002   6.2783124369552260E-002   0.0000000000000000     
   4.7739214590264756E-002   4.2180315676210521E-002   0.0000000000000000     
   5.0980530876804521E-002   4.6816624009308923E-002   0.0000000000000000     
   5.4125005621660734E-002   5.1646180873552182E-002   0.0000000000000000     
   5.7172638824833401E-002   5.6668986268940291E-002   0.0000000000000000     
   6.0123430486322536E-002   6.1885040195473237E-002   0.0000000000000000     
   4.3547648314019881E-002   4.1220464395913391E-002   0.0000000000000000     
   4.6582711550170790E-002   4.5889634895867455E-002   0.0000000000000000     
   4.9529371249223270E-002   5.0749421565288728E-002   0.0000000000000000     
   5.2387627411177286E-002   5.5799824404177210E-002   0.0000000000000000     
   5.5157480036032859E-002   6.1040843412532922E-002   0.0000000000000000     
   3.9566936095475833E-002   4.0333469784549165E-002   0.0000000000000000     
   4.2390272970021785E-002   4.5025720725626245E-002   0.0000000000000000     
   4.5133127838702922E-002   4.9909315078682286E-002   0.0000000000000000     
   4.7795500701519285E-002   5.4984252843717302E-002   0.0000000000000000     
   5.0377391558470833E-002   6.0250534020731300E-002   0.0000000000000000     
   3.5797077934632632E-002   3.9519331842117825E-002   0.0000000000000000     
   3.8403215136357485E-002   4.4224881498585306E-002   0.0000000000000000     
   4.0936275390099731E-002   4.9125861413732881E-002   0.0000000000000000     
   4.3396258695859384E-002   5.4222271587560565E-002   0.0000000000000000     
   4.5783165053636450E-002   5.9514112020068358E-002   0.0000000000000000     
   6.5275242909339865E-002   6.2783124369552260E-002   0.0000000000000000     
   6.8306612852711363E-002   6.8164864716007426E-002   0.0000000000000000     
   7.1257102768741531E-002   7.3728073395269544E-002   0.0000000000000000     
   7.4126712657430385E-002   7.9472750407338658E-002   0.0000000000000000     
   7.6915442518777910E-002   8.5398895752214737E-002   0.0000000000000000     
   6.0123430486322536E-002   6.1885040195473237E-002   0.0000000000000000     
   6.2985363158180582E-002   6.7289850835672779E-002   0.0000000000000000     
   6.5766419392460015E-002   7.2878926372060643E-002   0.0000000000000000     
   6.8466599189160857E-002   7.8652266804636800E-002   0.0000000000000000     
   7.1085902548283078E-002   8.4609872133401279E-002   0.0000000000000000     
   5.5157480036032859E-002   6.1040843412532922E-002   0.0000000000000000     
   5.7843445125388901E-002   6.6470016085857619E-002   0.0000000000000000     
   6.0450038680844302E-002   7.2084879919653122E-002   0.0000000000000000     
   6.2977260702399104E-002   7.7885434913919402E-002   0.0000000000000000     
   6.5425111190053259E-002   8.3871681068656459E-002   0.0000000000000000     
   5.0377391558470833E-002   6.0250534020731300E-002   0.0000000000000000     
   5.2880858754336305E-002   6.5705360466561946E-002   0.0000000000000000     
   5.5307960633894392E-002   7.1345934038047024E-002   0.0000000000000000     
   5.7658697197145108E-002   7.7172254735186421E-002   0.0000000000000000     
   5.9933068444088453E-002   8.3184322557980250E-002   0.0000000000000000     
   4.5783165053636450E-002   5.9514112020068358E-002   0.0000000000000000     
   4.8097604045022786E-002   6.4995883977785759E-002   0.0000000000000000     
   5.0340185251610270E-002   7.0662088727242264E-002   0.0000000000000000     
   5.2510908673398887E-002   7.6512726268437900E-002   0.0000000000000000     
   5.4609774310388638E-002   8.2547796601372625E-002   0.0000000000000000     
   7.6915442518777910E-002   8.5398895752214737E-002   0.0000000000000000     
   7.9607921892231037E-002   9.1494297842609110E-002   0.0000000000000000     
   8.2188780317236698E-002   9.7746745091233128E-002   0.0000000000000000     
   8.4658017793794907E-002  0.10415623749808681        0.0000000000000000     
   8.7015634321905649E-002  0.11072277506317010        0.0000000000000000     
   7.1085902548283078E-002   8.4609872133401279E-002   0.0000000000000000     
   7.3607554843233183E-002   9.0736493547960886E-002   0.0000000000000000     
   7.6014781447417690E-002   9.7016882237922375E-002   0.0000000000000000     
   7.8307582360836542E-002  0.10345103820328579        0.0000000000000000     
   8.0485957583489767E-002  0.11003896144405112        0.0000000000000000     
   6.5425111190053259E-002   8.3871681068656459E-002   0.0000000000000000     
   6.7776812986050872E-002   9.0026332268356907E-002   0.0000000000000000     
   7.0015588932636000E-002   9.6332102397513344E-002   0.0000000000000000     
   7.2141439029808657E-002  0.10278899145612579        0.0000000000000000     
   7.4154363277568802E-002  0.10939699944419418        0.0000000000000000     
   5.9933068444088453E-002   8.3184322557980250E-002   0.0000000000000000     
   6.2115696320684095E-002   8.9363814003797198E-002   0.0000000000000000     
   6.4191202772891698E-002   9.5692405570006037E-002   0.0000000000000000     
   6.6159587800711253E-002  0.10217009725660675        0.0000000000000000     
   6.8020851404142810E-002  0.10879688906359938        0.0000000000000000     
   5.4609774310388638E-002   8.2547796601372625E-002   0.0000000000000000     
   5.6624204847132827E-002   8.8748938754281734E-002   0.0000000000000000     
   5.8541622968184742E-002   9.5097791755400438E-002   0.0000000000000000     
   6.0362028673544378E-002  0.10159435560472874        0.0000000000000000     
   6.2085421963211734E-002  0.10823863030226664        0.0000000000000000     
   8.7015634321905649E-002  0.11072277506317010        0.0000000000000000     
   8.9274624853792159E-002  0.11743766162557751        0.0000000000000000     
   9.1447984341677641E-002  0.12429220102440339        0.0000000000000000     
   9.3535712785562108E-002  0.13128639325964778        0.0000000000000000     
   9.5537810185445549E-002  0.13842023833131067        0.0000000000000000     
   8.0485957583489767E-002  0.11003896144405112        0.0000000000000000     
   8.2588514011602970E-002  0.11677628313451659        0.0000000000000000     
   8.4653858541401755E-002  0.12365863444898050        0.0000000000000000     
   8.6681991172886122E-002  0.13068601538744284        0.0000000000000000     
   8.8672911906056084E-002  0.13785842594990361        0.0000000000000000     
   7.4154363277568802E-002  0.10939699944419418        0.0000000000000000     
   7.6107347166144479E-002  0.11615567743741775        0.0000000000000000     
   7.8053376185763620E-002  0.12306457651149570        0.0000000000000000     
   7.9992450336426241E-002  0.13012369666642798        0.0000000000000000     
   8.1924569618132340E-002  0.13733303790221454        0.0000000000000000     
   6.8020851404142810E-002  0.10879688906359938        0.0000000000000000     
   6.9831124317416657E-002  0.11557584453428106        0.0000000000000000     
   7.1646537274763222E-002  0.12251002721194895        0.0000000000000000     
   7.3467090276182423E-002  0.12959943709660310        0.0000000000000000     
   7.5292783321674328E-002  0.13684407418824349        0.0000000000000000     
   6.2085421963211734E-002  0.10823863030226664        0.0000000000000000     
   6.3759845465419546E-002  0.11503678442510641        0.0000000000000000     
   6.5433341808400533E-002  0.12199498655034030        0.0000000000000000     
   6.7105910992154710E-002  0.12911323667796828        0.0000000000000000     
   6.8777553016682050E-002  0.13639153480799038        0.0000000000000000     
   9.5537810185445549E-002  0.13842023833131067        0.0000000000000000     
   9.7493818228232595E-002  0.14567574348353143        0.0000000000000000     
   9.9443278600827856E-002  0.15303491596044944        0.0000000000000000     
  0.10138619130323132       0.16049775576206463        0.0000000000000000     
  0.10332255633544299       0.16806426288837703        0.0000000000000000     
   8.8672911906056084E-002  0.13785842594990361        0.0000000000000000     
   9.0578714063081503E-002  0.14515005393210495        0.0000000000000000     
   9.2351490966132307E-002  0.15253508712978903        0.0000000000000000     
   9.3991242615208498E-002  0.16001352554295575        0.0000000000000000     
   9.5497969010310046E-002  0.16758536917160521        0.0000000000000000     
   8.1924569618132340E-002  0.13733303790221454        0.0000000000000000     
   8.3749625139003622E-002  0.14465979277093483        0.0000000000000000     
   8.5367508007161808E-002  0.15207115382466796        0.0000000000000000     
   8.6778218222606895E-002  0.15956712106341403        0.0000000000000000     
   8.7981755785338900E-002  0.16714769448717304        0.0000000000000000     
   7.5292783321674328E-002  0.13684407418824349        0.0000000000000000     
   7.7006551455998953E-002  0.14420496000002092        0.0000000000000000     
   7.8491329723916356E-002  0.15164311604508621        0.0000000000000000     
   7.9747118125426550E-002  0.15915854232343943        0.0000000000000000     
   8.0773916660529493E-002  0.16675123883508050        0.0000000000000000     
   6.8777553016682050E-002  0.13639153480799038        0.0000000000000000     
   7.0349493014067496E-002  0.14378555561936335        0.0000000000000000     
   7.1722956116395953E-002  0.15125097379104385        0.0000000000000000     
   7.2897942323667406E-002  0.15878778932303195        0.0000000000000000     
   7.3874451635881883E-002  0.16639600221532763        0.0000000000000000     
   0.0000000000000000        0.0000000000000000        0.0000000000000000     
   2.8799977296887483E-003   1.7448598525270941E-003   0.0000000000000000     
   5.8725677147159466E-003   3.8647142464258567E-003   0.0000000000000000     
   8.9777099550815941E-003   6.3595631816962869E-003   0.0000000000000000     
   1.2195424450785692E-002   9.2294066583383846E-003   0.0000000000000000     
   0.0000000000000000        0.0000000000000000        0.0000000000000000     
   2.6102738814501847E-003   1.5890453601039422E-003   0.0000000000000000     
   5.2896919482132605E-003   3.5568601548753480E-003   0.0000000000000000     
   8.0382542002892278E-003   5.9034443843142183E-003   0.0000000000000000     
   1.0855960637678085E-002   8.6287980484205523E-003   0.0000000000000000     
   0.0000000000000000        0.0000000000000000        0.0000000000000000     
   2.3400917164551208E-003   1.4591033283500694E-003   0.0000000000000000     
   4.7202062684703469E-003   3.2999802751232160E-003   0.0000000000000000     
   7.1403436560456774E-003   5.5226308403194396E-003   0.0000000000000000     
   9.6005038791811114E-003   8.1270550239387392E-003   0.0000000000000000     
   0.0000000000000000        0.0000000000000000        0.0000000000000000     
   2.0694512347035577E-003   1.3550337572654759E-003   0.0000000000000000     
   4.1641106754872047E-003   3.0940746071694589E-003   0.0000000000000000     
   6.2839783223509419E-003   5.2171225497119490E-003   0.0000000000000000     
   8.4290541752947683E-003   7.7241775848929470E-003   0.0000000000000000     
   0.0000000000000000        0.0000000000000000        0.0000000000000000     
   1.7983524361954938E-003   1.2768366468501615E-003   0.0000000000000000     
   3.6214051692638350E-003   2.9391431510140779E-003   0.0000000000000000     
   5.4691581992050231E-003   4.9869195124917498E-003   0.0000000000000000     
   7.3416115260190587E-003   7.4201657312831766E-003   0.0000000000000000     
   1.2195424450785692E-002   9.2294066583383846E-003   0.0000000000000000     
   1.5427934398914473E-002   1.2372066519589974E-002   0.0000000000000000     
   1.8577462996554172E-002   1.5685364608688877E-002   0.0000000000000000     
   2.1644010243704798E-002   1.9169300925635093E-002   0.0000000000000000     
   2.4627576140366342E-002   2.2823875470428620E-002   0.0000000000000000     
   1.0855960637678085E-002   8.6287980484205523E-003   0.0000000000000000     
   1.3689395525513588E-002   1.1650725974464189E-002   0.0000000000000000     
   1.6485143128929489E-002   1.4887032989714964E-002   0.0000000000000000     
   1.9243203447925784E-002   1.8337719094172884E-002   0.0000000000000000     
   2.1963576482502477E-002   2.2002784287837942E-002   0.0000000000000000     
   9.6005038791811114E-003   8.1270550239387392E-003   0.0000000000000000     
   1.2077070860800532E-002   1.1046015486814031E-002   0.0000000000000000     
   1.4546428523827828E-002   1.4212274889778232E-002   0.0000000000000000     
   1.7008576868262997E-002   1.7625833232831338E-002   0.0000000000000000     
   1.9463515894106036E-002   2.1286690515973348E-002   0.0000000000000000     
   8.4290541752947683E-003   7.7241775848929470E-003   0.0000000000000000     
   1.0590960404775312E-002   1.0557935056639503E-002   0.0000000000000000     
   1.2761319181249200E-002   1.3661090308878670E-002   0.0000000000000000     
   1.4940130504716435E-002   1.7033643341610446E-002   0.0000000000000000     
   1.7127394375177012E-002   2.0675594154834838E-002   0.0000000000000000     
   7.3416115260190587E-003   7.4201657312831766E-003   0.0000000000000000     
   9.2310641574379244E-003   1.0186484683940606E-002   0.0000000000000000     
   1.1129815101193605E-002   1.3233479247016290E-002   0.0000000000000000     
   1.3037864357286096E-002   1.6561149420510228E-002   0.0000000000000000     
   1.4955211925715407E-002   2.0169495204422416E-002   0.0000000000000000     
   2.4627576140366342E-002   2.2823875470428620E-002   0.0000000000000000     
   2.7532226418570737E-002   2.6672261737697083E-002   0.0000000000000000     