 <VTKFile type="UnstructuredGrid"  version="0.1"   >
 <UnstructuredGrid>
 <Piece  NumberOfPoints="          1600 "  NumberOfCells="         1024 ">
 <Points>
 <DataArray  type="Float64" NumberOfComponents="3"  format="ascii" >
   0.0000000000000000        0.0000000000000000        0.0000000000000000     
   3.1250000000000000E-002   0.0000000000000000        0.0000000000000000     
   6.2500000000000000E-002   0.0000000000000000        0.0000000000000000     
   9.3750000000000000E-002   0.0000000000000000        0.0000000000000000     
  0.12500000000000000        0.0000000000000000        0.0000000000000000     
   0.0000000000000000        3.1250000000000000E-002   0.0000000000000000     
   3.1250000000000000E-002   3.1250000000000000E-002   0.0000000000000000     
   6.2500000000000000E-002   3.1250000000000000E-002   0.0000000000000000     
   9.3750000000000000E-002   3.1250000000000000E-002   0.0000000000000000     
  0.12500000000000000        3.1250000000000000E-002   0.0000000000000000     
   0.0000000000000000        6.2500000000000000E-002   0.0000000000000000     
   3.1250000000000000E-002   6.2500000000000000E-002   0.0000000000000000     
   6.2500000000000000E-002   6.2500000000000000E-002   0.0000000000000000     
   9.3750000000000000E-002   6.2500000000000000E-002   0.0000000000000000     
  0.12500000000000000        6.2500000000000000E-002   0.0000000000000000     
   0.0000000000000000        9.3750000000000000E-002   0.0000000000000000     
   3.1250000000000000E-002   9.3750000000000000E-002   0.0000000000000000     
   6.2500000000000000E-002   9.3750000000000000E-002   0.0000000000000000     
   9.3750000000000000E-002   9.3750000000000000E-002   0.0000000000000000     
  0.12500000000000000        9.3750000000000000E-002   0.0000000000000000     
   0.0000000000000000       0.12500000000000000        0.0000000000000000     
   3.1250000000000000E-002  0.12500000000000000        0.0000000000000000     
   6.2500000000000000E-002  0.12500000000000000        0.0000000000000000     
   9.3750000000000000E-002  0.12500000000000000        0.0000000000000000     
  0.12500000000000000       0.12500000000000000        0.0000000000000000     
  0.12500000000000000        0.0000000000000000        0.0000000000000000     
  0.15625000000000000        0.0000000000000000        0.0000000000000000     
  0.18750000000000000        0.0000000000000000        0.0000000000000000     
  0.21875000000000000        0.0000000000000000        0.0000000000000000     
  0.25000000000000000        0.0000000000000000        0.0000000000000000     
  0.12500000000000000        3.1250000000000000E-002   0.0000000000000000     
  0.15625000000000000        3.1250000000000000E-002   0.0000000000000000     
  0.18750000000000000        3.1250000000000000E-002   0.0000000000000000     
  0.21875000000000000        3.1250000000000000E-002   0.0000000000000000     
  0.25000000000000000        3.1250000000000000E-002   0.0000000000000000     
  0.12500000000000000        6.2500000000000000E-002   0.0000000000000000     
  0.15625000000000000        6.2500000000000000E-002   0.0000000000000000     
  0.18750000000000000        6.2500000000000000E-002   0.0000000000000000     
  0.21875000000000000        6.2500000000000000E-002   0.0000000000000000     
  0.25000000000000000        6.2500000000000000E-002   0.0000000000000000     
  0.12500000000000000        9.3750000000000000E-002   0.0000000000000000     
  0.15625000000000000        9.3750000000000000E-002   0.0000000000000000     
  0.18750000000000000        9.3750000000000000E-002   0.0000000000000000     
  0.21875000000000000        9.3750000000000000E-002   0.0000000000000000     
  0.25000000000000000        9.3750000000000000E-002   0.0000000000000000     
  0.12500000000000000       0.12500000000000000        0.0000000000000000     
  0.15625000000000000       0.12500000000000000        0.0000000000000000     
  0.18750000000000000       0.12500000000000000        0.0000000000000000     
  0.21875000000000000       0.12500000000000000        0.0000000000000000     
  0.25000000000000000       0.12500000000000000        0.0000000000000000     
  0.25000000000000000        0.0000000000000000        0.0000000000000000     
  0.28125000000000000        0.0000000000000000        0.0000000000000000     
  0.31250000000000000        0.0000000000000000        0.0000000000000000     
  0.34375000000000000        0.0000000000000000        0.0000000000000000     
  0.37500000000000000        0.0000000000000000        0.0000000000000000     
  0.25000000000000000        3.1250000000000000E-002   0.0000000000000000     
  0.28125000000000000        3.1250000000000000E-002   0.0000000000000000     
  0.31250000000000000        3.1250000000000000E-002   0.0000000000000000     
  0.34375000000000000        3.1250000000000000E-002   0.0000000000000000     
  0.37500000000000000        3.1250000000000000E-002   0.0000000000000000     
  0.25000000000000000        6.2500000000000000E-002   0.0000000000000000     
  0.28125000000000000        6.2500000000000000E-002   0.0000000000000000     
  0.31250000000000000        6.2500000000000000E-002   0.0000000000000000     
  0.34375000000000000        6.2500000000000000E-002   0.0000000000000000     
  0.37500000000000000        6.2500000000000000E-002   0.0000000000000000     
  0.25000000000000000        9.3750000000000000E-002   0.0000000000000000     
  0.28125000000000000        9.3750000000000000E-002   0.0000000000000000     
  0.31250000000000000        9.3750000000000000E-002   0.0000000000000000     
  0.34375000000000000        9.3750000000000000E-002   0.0000000000000000     
  0.37500000000000000        9.3750000000000000E-002   0.0000000000000000     
  0.25000000000000000       0.12500000000000000        0.0000000000000000     
  0.28125000000000000       0.12500000000000000        0.0000000000000000     
  0.31250000000000000       0.12500000000000000        0.0000000000000000     
  0.34375000000000000       0.12500000000000000        0.0000000000000000     
  0.37500000000000000       0.12500000000000000        0.0000000000000000     
  0.37500000000000000        0.0000000000000000        0.0000000000000000     
  0.40625000000000000        0.0000000000000000        0.0000000000000000     
  0.43750000000000000        0.0000000000000000        0.0000000000000000     
  0.46875000000000000        0.0000000000000000        0.0000000000000000     
  0.50000000000000000        0.0000000000000000        0.0000000000000000     
  0.37500000000000000        3.1250000000000000E-002   0.0000000000000000     
  0.40625000000000000        3.1250000000000000E-002   0.0000000000000000     
  0.43750000000000000        3.1250000000000000E-002   0.0000000000000000     
  0.46875000000000000        3.1250000000000000E-002   0.0000000000000000     
  0.50000000000000000        3.1250000000000000E-002   0.0000000000000000     
  0.37500000000000000        6.2500000000000000E-002   0.0000000000000000     
  0.40625000000000000        6.2500000000000000E-002   0.0000000000000000     
  0.43750000000000000        6.2500000000000000E-002   0.0000000000000000     
  0.46875000000000000        6.2500000000000000E-002   0.0000000000000000     
  0.50000000000000000        6.2500000000000000E-002   0.0000000000000000     
  0.37500000000000000        9.3750000000000000E-002   0.0000000000000000     
  0.40625000000000000        9.3750000000000000E-002   0.0000000000000000     
  0.43750000000000000        9.3750000000000000E-002   0.0000000000000000     
  0.46875000000000000        9.3750000000000000E-002   0.0000000000000000     
  0.50000000000000000        9.3750000000000000E-002   0.0000000000000000     
  0.37500000000000000       0.12500000000000000        0.0000000000000000     
  0.40625000000000000       0.12500000000000000        0.0000000000000000     
  0.43750000000000000       0.12500000000000000        0.0000000000000000     
  0.46875000000000000       0.12500000000000000        0.0000000000000000     
  0.50000000000000000       0.12500000000000000        0.0000000000000000     
  0.50000000000000000        0.0000000000000000        0.0000000000000000     
  0.53125000000000000        0.0000000000000000        0.0000000000000000     
  0.56250000000000000        0.0000000000000000        0.0000000000000000     
  0.59375000000000000        0.0000000000000000        0.0000000000000000     
  0.62500000000000000        0.0000000000000000        0.0000000000000000     
  0.50000000000000000        3.1250000000000000E-002   0.0000000000000000     
  0.53125000000000000        3.1250000000000000E-002   0.0000000000000000     
  0.56250000000000000        3.1250000000000000E-002   0.0000000000000000     
  0.59375000000000000        3.1250000000000000E-002   0.0000000000000000     
  0.62500000000000000        3.1250000000000000E-002   0.0000000000000000     
  0.50000000000000000        6.2500000000000000E-002   0.0000000000000000     
  0.53125000000000000        6.2500000000000000E-002   0.0000000000000000     
  0.56250000000000000        6.2500000000000000E-002   0.0000000000000000     
  0.59375000000000000        6.2500000000000000E-002   0.0000000000000000     
  0.62500000000000000        6.2500000000000000E-002   0.0000000000000000     
  0.50000000000000000        9.3750000000000000E-002   0.0000000000000000     
  0.53125000000000000        9.3750000000000000E-002   0.0000000000000000     
  0.56250000000000000        9.3750000000000000E-002   0.0000000000000000     
  0.59375000000000000        9.3750000000000000E-002   0.0000000000000000     
  0.62500000000000000        9.3750000000000000E-002   0.0000000000000000     
  0.50000000000000000       0.12500000000000000        0.0000000000000000     
  0.53125000000000000       0.12500000000000000        0.0000000000000000     
  0.56250000000000000       0.12500000000000000        0.0000000000000000     
[...]
 <PointData>
 <DataArray  type="Float64" Name="disp" NumberOfComponents="3" format="ascii">
   0.0000000000000000        0.0000000000000000        0.0000000000000000     
   6.0968344973749379E-003   3.7896551794638035E-003   0.0000000000000000     
   1.1668287260793235E-002   7.3219739312824998E-003   0.0000000000000000     
   1.6714358290254888E-002   1.0596956255456090E-002   0.0000000000000000     
   2.1235047585759902E-002   1.3614602151984571E-002   0.0000000000000000     
   0.0000000000000000        0.0000000000000000        0.0000000000000000     
   4.8923997535471192E-003   3.0208530243858124E-003   0.0000000000000000     
   9.5765138201537228E-003   6.0578664624181561E-003   0.0000000000000000     
   1.4052342199819809E-002   9.1110403140970339E-003   0.0000000000000000     
   1.8319884892545379E-002   1.2180374579422441E-002   0.0000000000000000     
   0.0000000000000000        0.0000000000000000        0.0000000000000000     
   3.9549872367535908E-003   2.4234066473433169E-003   0.0000000000000000     
   7.9137200164768051E-003   5.0595637573593909E-003   0.0000000000000000     
   1.1876198339169643E-002   7.9084713300482251E-003   0.0000000000000000     
   1.5842422204832105E-002   1.0970129365409812E-002   0.0000000000000000     
   0.0000000000000000        0.0000000000000000        0.0000000000000000     
   3.2845969469943530E-003   1.9973160483363174E-003   0.0000000000000000     
   6.6799058497624842E-003   4.3270658161062040E-003   0.0000000000000000     
   1.0185926708304392E-002   6.9892493033096598E-003   0.0000000000000000     
   1.3802659522620079E-002   9.9838665099466848E-003   0.0000000000000000     
   0.0000000000000000        0.0000000000000000        0.0000000000000000     
   2.8812288842694064E-003   1.7425812273648140E-003   0.0000000000000000     
   5.8750713200107583E-003   3.8603726386585947E-003   0.0000000000000000     
   8.9815273072240565E-003   6.3533742338813416E-003   0.0000000000000000     
   1.2200596845909300E-002   9.2215860130330559E-003   0.0000000000000000     
   2.1235047585759902E-002   1.3614602151984571E-002   0.0000000000000000     
   2.5443133061027152E-002   1.6606121552669471E-002   0.0000000000000000     
   2.9551392629775523E-002   1.9802724389312323E-002   0.0000000000000000     
   3.3559826292005004E-002   2.3204410661913109E-002   0.0000000000000000     
   3.7468434047715611E-002   2.6811180370471848E-002   0.0000000000000000     
   1.8319884892545379E-002   1.2180374579422441E-002   0.0000000000000000     
   2.2417271106479786E-002   1.5334565072068018E-002   0.0000000000000000     
   2.6382630049772367E-002   1.8642307605707398E-002   0.0000000000000000     
   3.0215961722423128E-002   2.2103602180340576E-002   0.0000000000000000     
   3.3917266124432063E-002   2.5718448795967561E-002   0.0000000000000000     
   1.5842422204832105E-002   1.0970129365409812E-002   0.0000000000000000     
   1.9740552886569635E-002   1.4203518796084936E-002   0.0000000000000000     
   2.3498751657487688E-002   1.7567620554714367E-002   0.0000000000000000     
   2.7117018517586255E-002   2.1062434641298103E-002   0.0000000000000000     
   3.0595353466865337E-002   2.4687961055836146E-002   0.0000000000000000     
   1.3802659522620079E-002   9.9838665099466848E-003   0.0000000000000000     
   1.7412978401296721E-002   1.3212982724720223E-002   0.0000000000000000     
   2.0899757452921493E-002   1.6578663236333224E-002   0.0000000000000000     
   2.4262996677494396E-002   2.0080908044785684E-002   0.0000000000000000     
   2.7502696075015425E-002   2.3719717150077611E-002   0.0000000000000000     
   1.2200596845909300E-002   9.2215860130330559E-003   0.0000000000000000     
   1.5434547650661025E-002   1.2362956857973883E-002   0.0000000000000000     
   1.8585647436073775E-002   1.5675435650563976E-002   0.0000000000000000     
   2.1653896202147537E-002   1.9159022390803328E-002   0.0000000000000000     
   2.4639293948882326E-002   2.2813717078691943E-002   0.0000000000000000     
   3.7468434047715611E-002   2.6811180370471848E-002   0.0000000000000000     
   4.1281727188399481E-002   3.0617884536506872E-002   0.0000000000000000     
   4.5004217005548776E-002   3.4619374181536516E-002   0.0000000000000000     
   4.8635903499163476E-002   3.8815649305560786E-002   0.0000000000000000     
   5.2176786669243608E-002   4.3206709908579680E-002   0.0000000000000000     
   3.3917266124432063E-002   2.5718448795967561E-002   0.0000000000000000     
   3.7510013189102867E-002   2.9515607954327987E-002   0.0000000000000000     
   4.1017672849739173E-002   3.3523840157161505E-002   0.0000000000000000     
   4.4440245106341002E-002   3.7743145404468111E-002   0.0000000000000000     
   4.7777729958908374E-002   4.2173523696247814E-002   0.0000000000000000     
   3.0595353466865337E-002   2.4687961055836146E-002   0.0000000000000000     
   3.3963540223006433E-002   2.8488960670184540E-002   0.0000000000000000     
   3.7251362503691043E-002   3.2510194356199326E-002   0.0000000000000000     
   4.0458820308919154E-002   3.6751662113880507E-002   0.0000000000000000     
   4.3585913638690785E-002   4.1213363943228082E-002   0.0000000000000000     
   2.7502696075015425E-002   2.3719717150077611E-002   0.0000000000000000     
   3.0642308290110210E-002   2.7537942684076531E-002   0.0000000000000000     
   3.3705285967404373E-002   3.1578436778649986E-002   0.0000000000000000     
   3.6691629106897924E-002   3.5841199433797981E-002   0.0000000000000000     
   3.9601337708590846E-002   4.0326230649520498E-002   0.0000000000000000     
   2.4639293948882326E-002   2.2813717078691943E-002   0.0000000000000000     
   2.7546317390414184E-002   2.6662553996003955E-002   0.0000000000000000     
   3.0379443240879180E-002   3.0728567424513475E-002   0.0000000000000000     
   3.3138671500277300E-002   3.5011757364220512E-002   0.0000000000000000     
   3.5824002168608558E-002   3.9512123815125068E-002   0.0000000000000000     
   5.2176786669243608E-002   4.3206709908579680E-002   0.0000000000000000     
   5.5623138029349165E-002   4.7798145955251656E-002   0.0000000000000000     
   5.8971229093040187E-002   5.2595547410235158E-002   0.0000000000000000     
   6.2221059860316653E-002   5.7598914273530193E-002   0.0000000000000000     
   6.5372630331178586E-002   6.2808246545136753E-002   0.0000000000000000     
   4.7777729958908374E-002   4.2173523696247814E-002   0.0000000000000000     
   5.1024575195516064E-002   4.6808776135791839E-002   0.0000000000000000     
   5.4175228604238908E-002   5.1642703826391446E-002   0.0000000000000000     
   5.7229690185076884E-002   5.6675306768046635E-002   0.0000000000000000     
   6.0187959938030035E-002   6.1906584960757391E-002   0.0000000000000000     
   4.3585913638690785E-002   4.1213363943228082E-002   0.0000000000000000     
   4.6626916698085628E-002   4.5882628476018296E-002   0.0000000000000000     
   4.9576103692183397E-002   5.0746784344027386E-002   0.0000000000000000     
   5.2433474620984098E-002   5.5805831547255359E-002   0.0000000000000000     
   5.5199029484487724E-002   6.1059770085702215E-002   0.0000000000000000     
   3.9601337708590846E-002   4.0326230649520498E-002   0.0000000000000000     
   4.2430162537057850E-002   4.5019702975931011E-002   0.0000000000000000     
   4.5173854356873669E-002   4.9907788963142963E-002   0.0000000000000000     
   4.7832413168038268E-002   5.4990488611156373E-002   0.0000000000000000     
   5.0405838970551661E-002   6.0267801919971206E-002   0.0000000000000000     
   3.5824002168608558E-002   3.9512123815125068E-002   0.0000000000000000     
   3.8434312712432743E-002   4.4219999635530013E-002   0.0000000000000000     
   4.0968480598309695E-002   4.9125717683738211E-002   0.0000000000000000     
   4.3426505826239394E-002   5.4229277959749668E-002   0.0000000000000000     
   4.5808388396221845E-002   5.9530680463564377E-002   0.0000000000000000     
   6.5372630331178586E-002   6.2808246545136753E-002   0.0000000000000000     
   6.8432396761609615E-002   6.8208718676781521E-002   0.0000000000000000     
   7.1406815407593416E-002   7.3785505120191150E-002   0.0000000000000000     
   7.4295886269129974E-002   7.9538605875365653E-002   0.0000000000000000     
   7.7099609346219289E-002   8.5468020942305045E-002   0.0000000000000000     
   6.0187959938030035E-002   6.1906584960757391E-002   0.0000000000000000     
   6.3059019020519511E-002   6.7327551931430626E-002   0.0000000000000000     
   6.5851848589966552E-002   7.2929221206973205E-002   0.0000000000000000     
   6.8566448646371139E-002   7.8711592787385126E-002   0.0000000000000000     
   7.1202819189733271E-002   8.4674666672666404E-002   0.0000000000000000     
   5.5199029484487724E-002   6.1059770085702215E-002   0.0000000000000000     
   5.7882221179042952E-002   6.6502733782070902E-002   0.0000000000000000     
   6.0492502600998470E-002   7.2128856459064333E-002   0.0000000000000000     
   6.3029873750354265E-002   7.7938138116682529E-002   0.0000000000000000     
   6.5494334627110365E-002   8.3930578754925461E-002   0.0000000000000000     
   5.0405838970551661E-002   6.0267801919971206E-002   0.0000000000000000     
   5.2902003237179931E-002   6.5734264228702322E-002   0.0000000000000000     
   5.5328777440689175E-002   7.1384410876464549E-002   0.0000000000000000     
   5.7686161581079386E-002   7.7218241863257833E-002   0.0000000000000000     
   5.9974155658350556E-002   8.3235757189082243E-002   0.0000000000000000     
   4.5808388396221845E-002   5.9530680463564377E-002   0.0000000000000000     
   4.8118365194930457E-002   6.5022143271324911E-002   0.0000000000000000     
   5.0360673109038662E-002   7.0695884459173811E-002   0.0000000000000000     
   5.2535312138546460E-002   7.6551904027111095E-002   0.0000000000000000     
   5.4642282283453844E-002   8.2590201975136751E-002   0.0000000000000000     
   7.7099609346219289E-002   8.5468020942305045E-002   0.0000000000000000     
   7.9803144190559852E-002   9.1566094714150517E-002   0.0000000000000000     
   8.2391650353850154E-002   9.7825171584043275E-002   0.0000000000000000     
   8.4865127836090223E-002  0.10424525155198330        0.0000000000000000     
   8.7223576637280031E-002  0.11082633461797065        0.0000000000000000     
   7.1202819189733271E-002   8.4674666672666404E-002   0.0000000000000000     
   7.3743870121579388E-002   9.0806614284718326E-002   0.0000000000000000     
   7.6172511343435945E-002   9.7095607045442262E-002   0.0000000000000000     
   7.8488742855302898E-002  0.10354164495483820        0.0000000000000000     
   8.0692564657180291E-002  0.11014472801290615        0.0000000000000000     
   6.5494334627110365E-002   8.3930578754925461E-002   0.0000000000000000     
   6.7869157828314389E-002   9.0092056949630739E-002   0.0000000000000000     
   7.0137615951013990E-002   9.6408451276636012E-002   0.0000000000000000     
   7.2299708995209169E-002  0.10287976173594116        0.0000000000000000     
   7.4355436960899940E-002  0.10950598832754629        0.0000000000000000     
   5.9974155658350556E-002   8.3235757189082243E-002   0.0000000000000000     
   6.2179007310764832E-002   8.9422422708887769E-002   0.0000000000000000     
   6.4286964176584319E-002   9.5763704277624387E-002   0.0000000000000000     
   6.6298026255809023E-002  0.10225960189529218        0.0000000000000000     
   6.8212193548438979E-002  0.10891011556189110        0.0000000000000000     
   5.4642282283453844E-002   8.2590201975136751E-002   0.0000000000000000     
   5.6673418568930704E-002   8.8797711562489362E-002   0.0000000000000000     
   5.8620556020146916E-002   9.5161366048407525E-002   0.0000000000000000     
   6.0483694637102473E-002  0.10168116543289127        0.0000000000000000     
   6.2262834419797367E-002  0.10835710971594052        0.0000000000000000     
   8.7223576637280031E-002  0.11082633461797065        0.0000000000000000     
   8.9492176481325292E-002  0.11755311213300942        0.0000000000000000     
   9.1696107092131732E-002  0.12441027544810382        0.0000000000000000     
   9.3835368469699337E-002  0.13139782456325383        0.0000000000000000     
   9.5909960614028095E-002  0.13851575947845951        0.0000000000000000     
   8.0692564657180291E-002  0.11014472801290615        0.0000000000000000     
   8.2813722044441956E-002  0.11689376155652367        0.0000000000000000     
   8.4881960312461827E-002  0.12377765092256841        0.0000000000000000     
   8.6897279461239846E-002  0.13079639611104030        0.0000000000000000     
   8.8859679490776056E-002  0.13794999712193945        0.0000000000000000     
   7.4355436960899940E-002  0.10950598832754629        0.0000000000000000     
   7.6334199857200302E-002  0.11627818011897570        0.0000000000000000     
   7.8265397693224339E-002  0.12318738617775377        0.0000000000000000     
   8.0149030468971968E-002  0.13023360650388047        0.0000000000000000     
   8.1985098184443259E-002  0.13741684109735580        0.0000000000000000     
   6.8212193548438979E-002  0.10891011556189110        0.0000000000000000     
   7.0053609919600288E-002  0.11570636782036553        0.0000000000000000     
   7.1846419234419215E-002  0.12263948121365992        0.0000000000000000     
   7.3590621492895678E-002  0.12970945574177428        0.0000000000000000     
   7.5286216695029717E-002  0.13691629140470862        0.0000000000000000     
   6.2262834419797367E-002  0.10835710971594052        0.0000000000000000     
   6.3971952231641940E-002  0.11517832466069314        0.0000000000000000     
   6.5625024936046480E-002  0.12213393603028691        0.0000000000000000     
   6.7222052533010987E-002  0.12922394382472180        0.0000000000000000     
   6.8763035022535460E-002  0.13644834804399786        0.0000000000000000     
   9.5909960614028095E-002  0.13851575947845951        0.0000000000000000     
   9.7880211907094256E-002  0.14575567612666929        0.0000000000000000     
   9.9706450730873947E-002  0.15310917044083167        0.0000000000000000     
  0.10138867708536722       0.16057624242094673        0.0000000000000000     
  0.10292689097057406       0.16815689206701442        0.0000000000000000     
   8.8859679490776056E-002  0.13794999712193945        0.0000000000000000     
   9.0719700965280009E-002  0.14522381856487443        0.0000000000000000     
   9.2427884448961328E-002  0.15260322504945392        0.0000000000000000     
   9.3984229941820013E-002  0.16008821657567798        0.0000000000000000     
   9.5388737443856064E-002  0.16767879314354656        0.0000000000000000     
   8.1985098184443259E-002  0.13741684109735580        0.0000000000000000     
   8.3724425326892504E-002  0.14471999117772502        0.0000000000000000     
   8.5317836383574069E-002  0.15212595796453332        0.0000000000000000     
   8.6765331354487885E-002  0.15963474145778070        0.0000000000000000     
   8.8066910239634033E-002  0.16724634165746721        0.0000000000000000     
   7.5286216695029717E-002  0.13691629140470862        0.0000000000000000     
   7.6894384991931755E-002  0.14424419396522109        0.0000000000000000     
   7.8376306534712101E-002  0.15167736918606983        0.0000000000000000     
   7.9731981323370865E-002  0.15921581706725491        0.0000000000000000     
   8.0961409357907937E-002  0.16685953760877634        0.0000000000000000     
   6.8763035022535460E-002  0.13644834804399786        0.0000000000000000     
   7.0229579960397706E-002  0.14379642692736258        0.0000000000000000     
   7.1603294902375506E-002  0.15125745871406351        0.0000000000000000     
   7.2884179848468858E-002  0.15883144340410069        0.0000000000000000     
   7.4072234798677805E-002  0.16651838099747404        0.0000000000000000     
   0.0000000000000000        0.0000000000000000        0.0000000000000000     
   2.8812288842694064E-003   1.7425812273648140E-003   0.0000000000000000     
   5.8750713200107583E-003   3.8603726386585947E-003   0.0000000000000000     
   8.9815273072240565E-003   6.3533742338813416E-003   0.0000000000000000     
   1.2200596845909300E-002   9.2215860130330559E-003   0.0000000000000000     
   0.0000000000000000        0.0000000000000000        0.0000000000000000     
   2.6111328812942385E-003   1.5865392999139761E-003   0.0000000000000000     
   5.2914074388019580E-003   3.5521896678095380E-003   0.0000000000000000     
   8.0408236725231577E-003   5.8969511036866869E-003   0.0000000000000000     
   1.0859381582457840E-002   8.6208236075454216E-003   0.0000000000000000     
   0.0000000000000000        0.0000000000000000        0.0000000000000000     
   2.3405587707843391E-003   1.4565273814689732E-003   0.0000000000000000     
   4.7211052177164141E-003   3.2952223463520109E-003   0.0000000000000000     
   7.1416393407962254E-003   5.5160848946491118E-003   0.0000000000000000     
   9.6021611400237735E-003   8.1191150263602782E-003   0.0000000000000000     
   0.0000000000000000        0.0000000000000000        0.0000000000000000     
   2.0695065527397069E-003   1.3525454720298054E-003   0.0000000000000000     
   4.1641646567541256E-003   3.0894706742860107E-003   0.0000000000000000     
   6.2839743120432553E-003   5.2107756067686171E-003   0.0000000000000000     
   8.4289355186070985E-003   7.7164602694776221E-003   0.0000000000000000     
   0.0000000000000000        0.0000000000000000        0.0000000000000000     
   1.7979762271603424E-003   1.2745935715964729E-003   0.0000000000000000     
   3.6205857559150922E-003   2.9349346516115401E-003   0.0000000000000000     
   5.4678285862642499E-003   4.9810232400452018E-003   0.0000000000000000     
   7.3397047182078134E-003   7.4128593368974569E-003   0.0000000000000000     
   1.2200596845909300E-002   9.2215860130330559E-003   0.0000000000000000     
   1.5434547650661025E-002   1.2362956857973883E-002   0.0000000000000000     
   1.8585647436073775E-002   1.5675435650563976E-002   0.0000000000000000     
   2.1653896202147537E-002   1.9159022390803328E-002   0.0000000000000000     
   2.4639293948882326E-002   2.2813717078691943E-002   0.0000000000000000     
   1.0859381582457840E-002   8.6208236075454216E-003   0.0000000000000000     
   1.3693774300419018E-002   1.1641569555194287E-002   0.0000000000000000     
   1.6490694958219709E-002   1.4876951322441826E-002   0.0000000000000000     
   1.9250143555859911E-002   1.8326968909288036E-002   0.0000000000000000     
   2.1972120093339622E-002   2.1991622315732928E-002   0.0000000000000000     
   9.6021611400237735E-003   8.1191150263602782E-003   0.0000000000000000     
   1.2079172016327156E-002   1.1036949175729803E-002   0.0000000000000000     
   1.4549173370634470E-002   1.4202223777001987E-002   0.0000000000000000     
   1.7012165202945718E-002   1.7614938830176823E-002   0.0000000000000000     
   1.9468147513260897E-002   2.1275094335254329E-002   0.0000000000000000     
   8.4289355186070985E-003   7.7164602694776221E-003   0.0000000000000000     
   1.0590740798385439E-002   1.0549095719580435E-002   0.0000000000000000     
   1.2761082673318061E-002   1.3651253014244460E-002   0.0000000000000000     
   1.4939961143404967E-002   1.7022932153469696E-002   0.0000000000000000     
   1.7127376208646152E-002   2.0664133137256142E-002   0.0000000000000000     
   7.3397047182078134E-003   7.4128593368974569E-003   0.0000000000000000     
   9.2284806465938625E-003   1.0178009186746179E-002   0.0000000000000000     
   1.1126422866270476E-002   1.3224039034169240E-002   0.0000000000000000     
   1.3033531377237648E-002   1.6550948879166638E-002   0.0000000000000000     
   1.4949806179495385E-002   2.0158738721738380E-002   0.0000000000000000     
   2.4639293948882326E-002   2.2813717078691943E-002   0.0000000000000000     
   2.7546317390414184E-002   2.6662553996003955E-002   0.0000000000000000     