 <VTKFile type="UnstructuredGrid"  version="0.1"   >
 <UnstructuredGrid>
 <Piece  NumberOfPoints="          1600 "  NumberOfCells="         1024 ">
 <Points>
 <DataArray  type="Float64" NumberOfComponents="3"  format="ascii" >
   0.0000000000000000        0.0000000000000000        0.0000000000000000     
   3.1250000000000000E-002   0.0000000000000000        0.0000000000000000     
   6.2500000000000000E-002   0.0000000000000000        0.0000000000000000     
   9.3750000000000000E-002   0.0000000000000000        0.0000000000000000     
  0.12500000000000000        0.0000000000000000        0.0000000000000000     
   0.0000000000000000        3.1250000000000000E-002   0.0000000000000000     
   3.1250000000000000E-002   3.1250000000000000E-002   0.0000000000000000     
   6.2500000000000000E-002   3.1250000000000000E-002   0.0000000000000000     
   9.3750000000000000E-002   3.1250000000000000E-002   0.0000000000000000     
  0.12500000000000000        3.1250000000000000E-002   0.0000000000000000     
   0.0000000000000000        6.2500000000000000E-002   0.0000000000000000     
   3.1250000000000000E-002   6.2500000000000000E-002   0.0000000000000000     
   6.2500000000000000E-002   6.2500000000000000E-002   0.0000000000000000     
   9.3750000000000000E-002   6.2500000000000000E-002   0.0000000000000000     
  0.12500000000000000        6.2500000000000000E-002   0.0000000000000000     
   0.0000000000000000        9.3750000000000000E-002   0.0000000000000000     
   3.1250000000000000E-002   9.3750000000000000E-002   0.0000000000000000     
   6.2500000000000000E-002   9.3750000000000000E-002   0.0000000000000000     
   9.3750000000000000E-002   9.3750000000000000E-002   0.0000000000000000     
  0.12500000000000000        9.3750000000000000E-002   0.0000000000000000     
   0.0000000000000000       0.12500000000000000        0.0000000000000000     
   3.1250000000000000E-002  0.12500000000000000        0.0000000000000000     
   6.2500000000000000E-002  0.12500000000000000        0.0000000000000000     
   9.3750000000000000E-002  0.12500000000000000        0.0000000000000000     
  0.12500000000000000       0.12500000000000000        0.0000000000000000     
  0.12500000000000000        0.0000000000000000        0.0000000000000000     
  0.15625000000000000        0.0000000000000000        0.0000000000000000     
  0.18750000000000000        0.0000000000000000        0.0000000000000000     
  0.21875000000000000        0.0000000000000000        0.0000000000000000     
  0.25000000000000000        0.0000000000000000        0.0000000000000000     
  0.12500000000000000        3.1250000000000000E-002   0.0000000000000000     
  0.15625000000000000        3.1250000000000000E-002   0.0000000000000000     
  0.18750000000000000        3.1250000000000000E-002   0.0000000000000000     
  0.21875000000000000        3.1250000000000000E-002   0.0000000000000000     
  0.25000000000000000        3.1250000000000000E-002   0.0000000000000000     
  0.12500000000000000        6.2500000000000000E-002   0.0000000000000000     
  0.15625000000000000        6.2500000000000000E-002   0.0000000000000000     
  0.18750000000000000        6.2500000000000000E-002   0.0000000000000000     
  0.21875000000000000        6.2500000000000000E-002   0.0000000000000000     
  0.25000000000000000        6.2500000000000000E-002   0.0000000000000000     
  0.12500000000000000        9.3750000000000000E-002   0.0000000000000000     
  0.15625000000000000        9.3750000000000000E-002   0.0000000000000000     
  0.18750000000000000        9.3750000000000000E-002   0.0000000000000000     
  0.21875000000000000        9.3750000000000000E-002   0.0000000000000000     
  0.25000000000000000        9.3750000000000000E-002   0.0000000000000000     
  0.12500000000000000       0.12500000000000000        0.0000000000000000     
  0.15625000000000000       0.12500000000000000        0.0000000000000000     
  0.18750000000000000       0.12500000000000000        0.0000000000000000     
  0.21875000000000000       0.12500000000000000        0.0000000000000000     
  0.25000000000000000       0.12500000000000000        0.0000000000000000     
  0.25000000000000000        0.0000000000000000        0.0000000000000000     
  0.28125000000000000        0.0000000000000000        0.0000000000000000     
  0.31250000000000000        0.0000000000000000        0.0000000000000000     
  0.34375000000000000        0.0000000000000000        0.0000000000000000     
  0.37500000000000000        0.0000000000000000        0.0000000000000000     
  0.25000000000000000        3.1250000000000000E-002   0.0000000000000000     
  0.28125000000000000        3.1250000000000000E-002   0.0000000000000000     
  0.31250000000000000        3.1250000000000000E-002   0.0000000000000000     
  0.34375000000000000        3.1250000000000000E-002   0.0000000000000000     
  0.37500000000000000        3.1250000000000000E-002   0.0000000000000000     
  0.25000000000000000        6.2500000000000000E-002   0.0000000000000000     
  0.28125000000000000        6.2500000000000000E-002   0.0000000000000000     
  0.31250000000000000        6.2500000000000000E-002   0.0000000000000000     
  0.34375000000000000        6.2500000000000000E-002   0.0000000000000000     
  0.37500000000000000        6.2500000000000000E-002   0.0000000000000000     
  0.25000000000000000        9.3750000000000000E-002   0.0000000000000000     
  0.28125000000000000        9.3750000000000000E-002   0.0000000000000000     
  0.31250000000000000        9.3750000000000000E-002   0.0000000000000000     
  0.34375000000000000        9.3750000000000000E-002   0.0000000000000000     
  0.37500000000000000        9.3750000000000000E-002   0.0000000000000000     
  0.25000000000000000       0.12500000000000000        0.0000000000000000     
  0.28125000000000000       0.12500000000000000        0.0000000000000000     
  0.31250000000000000       0.12500000000000000        0.0000000000000000     
  0.34375000000000000       0.12500000000000000        0.0000000000000000     
  0.37500000000000000       0.12500000000000000        0.0000000000000000     
  0.37500000000000000        0.0000000000000000        0.0000000000000000     
  0.40625000000000000        0.0000000000000000        0.0000000000000000     
  0.43750000000000000        0.0000000000000000        0.0000000000000000     
  0.46875000000000000        0.0000000000000000        0.0000000000000000     
  0.50000000000000000        0.0000000000000000        0.0000000000000000     
  0.37500000000000000        3.1250000000000000E-002   0.0000000000000000     
  0.40625000000000000        3.1250000000000000E-002   0.0000000000000000     
  0.43750000000000000        3.1250000000000000E-002   0.0000000000000000     
  0.46875000000000000        3.1250000000000000E-002   0.0000000000000000     
  0.50000000000000000        3.1250000000000000E-002   0.0000000000000000     
  0.37500000000000000        6.2500000000000000E-002   0.0000000000000000     
  0.40625000000000000        6.2500000000000000E-002   0.0000000000000000     
  0.43750000000000000        6.2500000000000000E-002   0.0000000000000000     
  0.46875000000000000        6.2500000000000000E-002   0.0000000000000000     
  0.50000000000000000        6.2500000000000000E-002   0.0000000000000000     
  0.37500000000000000        9.3750000000000000E-002   0.0000000000000000     
  0.40625000000000000        9.3750000000000000E-002   0.0000000000000000     
  0.43750000000000000        9.3750000000000000E-002   0.0000000000000000     
  0.46875000000000000        9.3750000000000000E-002   0.0000000000000000     
  0.50000000000000000        9.3750000000000000E-002   0.0000000000000000     
  0.37500000000000000       0.12500000000000000        0.0000000000000000     
  0.40625000000000000       0.12500000000000000        0.0000000000000000     
  0.43750000000000000       0.12500000000000000        0.0000000000000000     
  0.46875000000000000       0.12500000000000000        0.0000000000000000     
  0.50000000000000000       0.12500000000000000        0.0000000000000000     
  0.50000000000000000        0.0000000000000000        0.0000000000000000     
  0.53125000000000000        0.0000000000000000        0.0000000000000000     
  0.56250000000000000        0.0000000000000000        0.0000000000000000     
  0.59375000000000000        0.0000000000000000        0.0000000000000000     
  0.62500000000000000        0.0000000000000000        0.0000000000000000     
  0.50000000000000000        3.1250000000000000E-002   0.0000000000000000     
  0.53125000000000000        3.1250000000000000E-002   0.0000000000000000     
  0.56250000000000000        3.1250000000000000E-002   0.0000000000000000     
  0.59375000000000000        3.1250000000000000E-002   0.0000000000000000     
  0.62500000000000000        3.1250000000000000E-002   0.0000000000000000     
  0.50000000000000000        6.2500000000000000E-002   0.0000000000000000     
  0.53125000000000000        6.2500000000000000E-002   0.0000000000000000     
  0.56250000000000000        6.2500000000000000E-002   0.0000000000000000     
  0.59375000000000000        6.2500000000000000E-002   0.0000000000000000     
  0.62500000000000000        6.2500000000000000E-002   0.0000000000000000     
  0.50000000000000000        9.3750000000000000E-002   0.0000000000000000     
  0.53125000000000000        9.3750000000000000E-002   0.0000000000000000     
  0.56250000000000000        9.3750000000000000E-002   0.0000000000000000     
  0.59375000000000000        9.3750000000000000E-002   0.0000000000000000     
  0.62500000000000000        9.3750000000000000E-002   0.0000000000000000     
  0.50000000000000000       0.12500000000000000        0.0000000000000000     
  0.53125000000000000       0.12500000000000000        0.0000000000000000     
  0.56250000000000000       0.12500000000000000        0.0000000000000000     
[...]
 <PointData>
 <DataArray  type="Float64" Name="disp" NumberOfComponents="3" format="ascii">
   0.0000000000000000        0.0000000000000000        0.0000000000000000     
   6.0960066400178514E-003   3.7905029923028925E-003   0.0000000000000000     
   1.1666031114864611E-002   7.3239552119989653E-003   0.0000000000000000     
   1.6710073424540277E-002   1.0600356659088218E-002   0.0000000000000000     
   2.1228133569044853E-002   1.3619707333570652E-002   0.0000000000000000     
   0.0000000000000000        0.0000000000000000        0.0000000000000000     
   4.8911566456066088E-003   3.0222122880818394E-003   0.0000000000000000     
   9.5736247922331291E-003   6.0606418766397368E-003   0.0000000000000000     
   1.4047404439879556E-002   9.1152887656736920E-003   0.0000000000000000     
   1.8312495588545894E-002   1.2186152955183705E-002   0.0000000000000000     
   0.0000000000000000        0.0000000000000000        0.0000000000000000     
   3.9535521861080907E-003   2.4251786224244701E-003   0.0000000000000000     
   7.9105941955261456E-003   5.0629960702601937E-003   0.0000000000000000     
   1.1871126028254166E-002   7.9134523435071685E-003   0.0000000000000000     
   1.5835147684292148E-002   1.0976547442165398E-002   0.0000000000000000     
   0.0000000000000000        0.0000000000000000        0.0000000000000000     
   3.2831932615222945E-003   1.9994019953307848E-003   0.0000000000000000     
   6.6769393247436623E-003   4.3310177928603359E-003   0.0000000000000000     
   1.0181238189664104E-002   6.9948473925886519E-003   0.0000000000000000     
   1.3796089856283618E-002   9.9908907945157333E-003   0.0000000000000000     
   0.0000000000000000        0.0000000000000000        0.0000000000000000     
   2.8800798718492220E-003   1.7448824068007828E-003   0.0000000000000000     
   5.8726601798856793E-003   3.8647070444401627E-003   0.0000000000000000     
   8.9777409241093738E-003   6.3594739129181396E-003   0.0000000000000000     
   1.2195322104520300E-002   9.2291830122347134E-003   0.0000000000000000     
   2.1228133569044853E-002   1.3619707333570652E-002   0.0000000000000000     
   2.5433160514618424E-002   1.6612654173063755E-002   0.0000000000000000     
   2.9538103227501094E-002   1.9809844115185021E-002   0.0000000000000000     
   3.3542961707692845E-002   2.3211277159934447E-002   0.0000000000000000     
   3.7447735955193698E-002   2.6816953307312034E-002   0.0000000000000000     
   1.8312495588545894E-002   1.2186152955183705E-002   0.0000000000000000     
   2.2407126486716687E-002   1.5341622291504660E-002   0.0000000000000000     
   2.6369525382876485E-002   1.8650084620971456E-002   0.0000000000000000     
   3.0199692277025288E-002   2.2111539943584082E-002   0.0000000000000000     
   3.3897627169163093E-002   2.5725988259342546E-002   0.0000000000000000     
   1.5835147684292148E-002   1.0976547442165398E-002   0.0000000000000000     
   1.9730869240484401E-002   1.4211131676207737E-002   0.0000000000000000     
   2.3486500773675242E-002   1.7576055355607058E-002   0.0000000000000000     
   2.7102042283864650E-002   2.1071318480363352E-002   0.0000000000000000     
   3.0577493771052646E-002   2.4696921050476616E-002   0.0000000000000000     
   1.3796089856283618E-002   9.9908907945157333E-003   0.0000000000000000     
   1.7404388775921580E-002   1.3221182327172990E-002   0.0000000000000000     
   2.0889029399897351E-002   1.6587756319091828E-002   0.0000000000000000     
   2.4250011728210945E-002   2.0090612770272239E-002   0.0000000000000000     
   2.7487335760862347E-002   2.3729751680714246E-002   0.0000000000000000     
   1.2195322104520300E-002   9.2291830122347134E-003   0.0000000000000000     
   1.5427685093028205E-002   1.2371774244400413E-002   0.0000000000000000     
   1.8577111261542826E-002   1.5685187511425766E-002   0.0000000000000000     
   2.1643600610064154E-002   1.9169422813310771E-002   0.0000000000000000     
   2.4627153138592199E-002   2.2824480150055428E-002   0.0000000000000000     
   3.7447735955193698E-002   2.6816953307312034E-002   0.0000000000000000     
   4.1256471246638469E-002   3.0622161760418664E-002   0.0000000000000000     
   4.4973212858661994E-002   3.4622191722355221E-002   0.0000000000000000     
   4.8597960791264279E-002   3.8817043193121716E-002   0.0000000000000000     
   5.2130715044445317E-002   4.3206716172718124E-002   0.0000000000000000     
   3.3897627169163093E-002   2.5725988259342546E-002   0.0000000000000000     
   3.7486366179481298E-002   2.9522224655910787E-002   0.0000000000000000     
   4.0988945428171303E-002   3.3529044220952736E-002   0.0000000000000000     
   4.4405364915233073E-002   3.7746446954468417E-002   0.0000000000000000     
   4.7735624640666642E-002   4.2174432856457805E-002   0.0000000000000000     
   3.0577493771052646E-002   2.4696921050476616E-002   0.0000000000000000     
   3.3942240985340114E-002   2.8497398139115539E-002   0.0000000000000000     
   3.7225669676827972E-002   3.2517284819448801E-002   0.0000000000000000     
   4.0427779845516196E-002   3.6756581091476392E-002   0.0000000000000000     
   4.3548571491404800E-002   4.1215286955198320E-002   0.0000000000000000     
   2.7487335760862347E-002   2.3729751680714246E-002   0.0000000000000000     
   3.0624095664214923E-002   2.7547682210032925E-002   0.0000000000000000     
   3.3683385604632021E-002   3.1586913517843394E-002   0.0000000000000000     
   3.6665205582113648E-002   3.5847445604145642E-002   0.0000000000000000     
   3.9569555596659804E-002   4.0329278468939675E-002   0.0000000000000000     
   2.4627153138592199E-002   2.2824480150055428E-002   0.0000000000000000     
   2.7531930216105713E-002   2.6673076868662944E-002   0.0000000000000000     
   3.0362093211583459E-002   3.0737930316136523E-002   0.0000000000000000     
   3.3117642125025437E-002   3.5019040492476165E-002   0.0000000000000000     
   3.5798576956431627E-002   3.9516407397681877E-002   0.0000000000000000     
   5.2130715044445317E-002   4.3206716172718124E-002   0.0000000000000000     
   5.5569774802393349E-002   4.7795673892077929E-002   0.0000000000000000     
   5.8913439249296644E-002   5.2588379582134560E-002   0.0000000000000000     
   6.2161708385155182E-002   5.7584833242888031E-002   0.0000000000000000     
   6.5314582209968997E-002   6.2785034874338341E-002   0.0000000000000000     
   4.7735624640666642E-002   4.2174432856457805E-002   0.0000000000000000     
   5.0975988690768796E-002   4.6806414580612785E-002   0.0000000000000000     
   5.4122721151836334E-002   5.1635804780625273E-002   0.0000000000000000     
   5.7175822023869262E-002   5.6662603456495250E-002   0.0000000000000000     
   6.0135291306867573E-002   6.1886810608222709E-002   0.0000000000000000     
   4.3548571491404800E-002   4.1215286955198320E-002   0.0000000000000000     
   4.6583909094723548E-002   4.5880808867622136E-002   0.0000000000000000     
   4.9529657135702204E-002   5.0740553285755399E-002   0.0000000000000000     
   5.2385815614340768E-002   5.5794520209598103E-002   0.0000000000000000     
   5.5152384530639226E-002   6.1042709639150261E-002   0.0000000000000000     
   3.9569555596659804E-002   4.0329278468939675E-002   0.0000000000000000     
   4.2393536014257625E-002   4.5018856753105956E-002   0.0000000000000000     
   4.5134247200894248E-002   4.9902625097524932E-002   0.0000000000000000     
   4.7791689156569700E-002   5.4980583502196617E-002   0.0000000000000000     
   5.0365861881283946E-002   6.0252731967120998E-002   0.0000000000000000     
   3.5798576956431627E-002   3.9516407397681877E-002   0.0000000000000000     
   3.8404869449371000E-002   4.4220558237064236E-002   0.0000000000000000     
   4.0936491347412472E-002   4.9122020215933877E-002   0.0000000000000000     
   4.3393442650556044E-002   5.4220793334290772E-002   0.0000000000000000     
   4.5775723358801729E-002   5.9516877592134927E-002   0.0000000000000000     
   6.5314582209968997E-002   6.2785034874338341E-002   0.0000000000000000     
   6.8373483716706845E-002   6.8176250431205537E-002   0.0000000000000000     
   7.1339835898337534E-002   7.3745745868209645E-002   0.0000000000000000     
   7.4213638754861061E-002   7.9493521185350677E-002   0.0000000000000000     
   7.6994892286277455E-002   8.5419576382628620E-002   0.0000000000000000     
   6.0135291306867573E-002   6.1886810608222709E-002   0.0000000000000000     
   6.3004552194900379E-002   6.7300070638573892E-002   0.0000000000000000     
   6.5787027882036817E-002   7.2894027950315035E-002   0.0000000000000000     
   6.8482718368276851E-002   7.8668682543446125E-002   0.0000000000000000     
   7.1091623653620512E-002   8.4624034417967176E-002   0.0000000000000000     
   5.5152384530639226E-002   6.1042709639150261E-002   0.0000000000000000     
   5.7833421092258544E-002   6.6479052165801994E-002   0.0000000000000000     
   6.0432982506859662E-002   7.2097478380943408E-002   0.0000000000000000     
   6.2951068774442592E-002   7.7897988284574532E-002   0.0000000000000000     
   6.5387679895007322E-002   8.3880581876695351E-002   0.0000000000000000     
   5.0365861881283946E-002   6.0252731967120998E-002   0.0000000000000000     
   5.2860090408781306E-002   6.5713195012889802E-002   0.0000000000000000     
   5.5277699772806090E-002   7.1356097160094792E-002   0.0000000000000000     
   5.7618689973358277E-002   7.7181438408735883E-002   0.0000000000000000     
   5.9883061010437881E-002   8.3189218758813160E-002   0.0000000000000000     
   4.5775723358801729E-002   5.9516877592134927E-002   0.0000000000000000     
   4.8084560144468685E-002   6.5002499179837386E-002   0.0000000000000000     
   5.0321179679876080E-002   7.0669884287769130E-002   0.0000000000000000     
   5.2485581965023911E-002   7.6519032915930180E-002   0.0000000000000000     
   5.4577766999912188E-002   8.2549945064320548E-002   0.0000000000000000     
   7.6994892286277455E-002   8.5419576382628620E-002   0.0000000000000000     
   7.9677903772101072E-002   9.1512624973025897E-002   0.0000000000000000     
   8.2256980491846349E-002   9.7761380469524914E-002   0.0000000000000000     
   8.4732122445513300E-002  0.10416584287212566        0.0000000000000000     
   8.7103329633101884E-002  0.11072601218082814        0.0000000000000000     
   7.1091623653620512E-002   8.4624034417967176E-002   0.0000000000000000     
   7.3608200691525780E-002   9.0747290732012847E-002   0.0000000000000000     
   7.6026906435450667E-002   9.7025658643717747E-002   0.0000000000000000     
   7.8347740885395173E-002  0.10345913815308193        0.0000000000000000     
   8.0570704041359284E-002  0.11004772926010534        0.0000000000000000     
   6.5387679895007322E-002   8.3880581876695351E-002   0.0000000000000000     
   6.7737693310293196E-002   9.0031514772739685E-002   0.0000000000000000     
   6.9995986462039542E-002   9.6337042588141408E-002   0.0000000000000000     
   7.2162559350246375E-002  0.10279716532290041        0.0000000000000000     
   7.4237411974913667E-002  0.10941188297701680        0.0000000000000000     
   5.9883061010437881E-002   8.3189218758813160E-002   0.0000000000000000     
   6.2066381628403305E-002   8.9365297095206492E-002   0.0000000000000000     
   6.4164220571612987E-002   9.5695532302795830E-002   0.0000000000000000     
   6.6176577840066864E-002  0.10217992438158117        0.0000000000000000     
   6.8103453433765018E-002  0.10881847333156255        0.0000000000000000     
   5.4577766999912188E-002   8.2549945064320548E-002   0.0000000000000000     
   5.6594265645856137E-002   8.8748637699413213E-002   0.0000000000000000     
   5.8531608764170975E-002   9.5101127787681081E-002   0.0000000000000000     
   6.0389796354856716E-002  0.10160741532912419        0.0000000000000000     
   6.2168828417913359E-002  0.10826750032374255        0.0000000000000000     
   8.7103329633101884E-002  0.11072601218082814        0.0000000000000000     
   8.9383491576142227E-002  0.11743397374178136        0.0000000000000000     
   9.1585497796164400E-002  0.12428181290113437        0.0000000000000000     
   9.3709348293168446E-002  0.13126952965888711        0.0000000000000000     
   9.5755043067154322E-002  0.13839712401503962        0.0000000000000000     
   8.0570704041359284E-002  0.11004772926010534        0.0000000000000000     
   8.2707299197695816E-002  0.11678360910895225        0.0000000000000000     
   8.4769029648757571E-002  0.12365895484378686        0.0000000000000000     
   8.6755895394544522E-002  0.13067376646460921        0.0000000000000000     
   8.8667896435056695E-002  0.13782804397141923        0.0000000000000000     
   7.4237411974913667E-002  0.10941188297701680        0.0000000000000000     
   7.6230975688790809E-002  0.11617367692121240        0.0000000000000000     
   7.8153681844627190E-002  0.12307502852620902        0.0000000000000000     
   8.0005530442422770E-002  0.13011593779200670        0.0000000000000000     
   8.1786521482177577E-002  0.13729640471860544        0.0000000000000000     
   6.8103453433765018E-002  0.10881847333156255        0.0000000000000000     
   6.9954521049427218E-002  0.11560417717856181        0.0000000000000000     
   7.1739454383773285E-002  0.12253003394840080        0.0000000000000000     
   7.3458253436803206E-002  0.12959604364107957        0.0000000000000000     
   7.5110918208516966E-002  0.13680220625659809        0.0000000000000000     
   6.2168828417913359E-002  0.10826750032374255        0.0000000000000000     
   6.3877935279605030E-002  0.11507510988100042        0.0000000000000000     
   6.5526347266195828E-002  0.12202397111036217        0.0000000000000000     
   6.7114064377685773E-002  0.12911408401182781        0.0000000000000000     
   6.8641086614074864E-002  0.13634544858539729        0.0000000000000000     
   9.5755043067154322E-002  0.13839712401503962        0.0000000000000000     
   9.7700446114592027E-002  0.14564564978172584        0.0000000000000000     
   9.9523421431951559E-002  0.15299616077107966        0.0000000000000000     
  0.10122396901923288       0.16044865698310112        0.0000000000000000     
  0.10280208887643601       0.16800313841779022        0.0000000000000000     
   8.8667896435056695E-002  0.13782804397141923        0.0000000000000000     
   9.0488981900038193E-002  0.14510281517633464        0.0000000000000000     
   9.2203100919233116E-002  0.15247910789147295        0.0000000000000000     
   9.3810253492641493E-002  0.15995692211683418        0.0000000000000000     
   9.5310439620263282E-002  0.16753625785241838        0.0000000000000000     
   8.1786521482177577E-002  0.13729640471860544        0.0000000000000000     
   8.3483975338217664E-002  0.14459716861131283        0.0000000000000000     
   8.5085212384869130E-002  0.15199896877543667        0.0000000000000000     
   8.6590232622131988E-002  0.15950180521097684        0.0000000000000000     
   8.7999036050006196E-002  0.16710567791793340        0.0000000000000000     
   7.5110918208516966E-002  0.13680220625659809        0.0000000000000000     
   7.6685426429130482E-002  0.14412871008666045        0.0000000000000000     
   7.8169755828859600E-002  0.15155574342297079        0.0000000000000000     
   7.9563906407704360E-002  0.15908330626552911        0.0000000000000000     
   8.0867878165664736E-002  0.16671139861433532        0.0000000000000000     
   6.8641086614074864E-002  0.13634544858539729        0.0000000000000000     
   7.0093335172776605E-002  0.14369743960237755        0.0000000000000000     
   7.1456731251204525E-002  0.15114943183407542        0.0000000000000000     
   7.2731274849358610E-002  0.15870142528049092        0.0000000000000000     
   7.3916965967238901E-002  0.16635341994162411        0.0000000000000000     
   0.0000000000000000        0.0000000000000000        0.0000000000000000     
   2.8800798718492220E-003   1.7448824068007828E-003   0.0000000000000000     
   5.8726601798856793E-003   3.8647070444401627E-003   0.0000000000000000     
   8.9777409241093738E-003   6.3594739129181396E-003   0.0000000000000000     
   1.2195322104520300E-002   9.2291830122347134E-003   0.0000000000000000     
   0.0000000000000000        0.0000000000000000        0.0000000000000000     
   2.6103537726685886E-003   1.5889622125182799E-003   0.0000000000000000     
   5.2897617591345439E-003   3.5567537867718692E-003   0.0000000000000000     
   8.0382239593978656E-003   5.9033747227607691E-003   0.0000000000000000     
   1.0855740373458553E-002   8.6288250204849797E-003   0.0000000000000000     
   0.0000000000000000        0.0000000000000000        0.0000000000000000     
   2.3401567195601089E-003   1.4589837681670897E-003   0.0000000000000000     
   4.7202490606726008E-003   3.2998479816276484E-003   0.0000000000000000     
   7.1402770233374756E-003   5.5225926403816754E-003   0.0000000000000000     
   9.6002406075547334E-003   8.1272177444291719E-003   0.0000000000000000     
   0.0000000000000000        0.0000000000000000        0.0000000000000000     
   2.0694887125237834E-003   1.3549470737472134E-003   0.0000000000000000     
   4.1641220844998500E-003   3.0939896290074998E-003   0.0000000000000000     
   6.2839001159282004E-003   5.2171276657808595E-003   0.0000000000000000     
   8.4288228068088340E-003   7.7243611840672943E-003   0.0000000000000000     
   0.0000000000000000        0.0000000000000000        0.0000000000000000     
   1.7983497515596113E-003   1.2768521292586500E-003   0.0000000000000000     
   3.6213808306162919E-003   2.9391787289114236E-003   0.0000000000000000     
   5.4690932371700418E-003   4.9869797989583204E-003   0.0000000000000000     
   7.3414869712208619E-003   7.4202553393993426E-003   0.0000000000000000     
   1.2195322104520300E-002   9.2291830122347134E-003   0.0000000000000000     
   1.5427685093028205E-002   1.2371774244400413E-002   0.0000000000000000     
   1.8577111261542826E-002   1.5685187511425766E-002   0.0000000000000000     
   2.1643600610064154E-002   1.9169422813310771E-002   0.0000000000000000     
   2.4627153138592199E-002   2.2824480150055428E-002   0.0000000000000000     
   1.0855740373458553E-002   8.6288250204849797E-003   0.0000000000000000     
   1.3689025183469358E-002   1.1650847573004533E-002   0.0000000000000000     
   1.6484792571583029E-002   1.4887185273379467E-002   0.0000000000000000     
   1.9243042537799564E-002   1.8337838121609787E-002   0.0000000000000000     
   2.1963775082118955E-002   2.2002806117695482E-002   0.0000000000000000     
   9.6002406075547334E-003   8.1272177444291719E-003   0.0000000000000000     
   1.2076676038910109E-002   1.1046342458099880E-002   0.0000000000000000     
   1.4546119542989344E-002   1.4212585945723541E-002   0.0000000000000000     
   1.7008571119792436E-002   1.7625948207300159E-002   0.0000000000000000     
   1.9464030769319386E-002   2.1286429242829724E-002   0.0000000000000000     
   8.4288228068088340E-003   7.7243611840672943E-003   0.0000000000000000     
   1.0590637659350456E-002   1.0558258899686450E-002   0.0000000000000000     
   1.2761092175761768E-002   1.3661389528457980E-002   0.0000000000000000     
   1.4940186356042775E-002   1.7033753070381880E-002   0.0000000000000000     
   1.7127920200193467E-002   2.0675349525458155E-002   0.0000000000000000     
   7.3414869712208619E-003   7.4202553393993426E-003   0.0000000000000000     
   9.2309100447904007E-003   1.0186596897764246E-002   0.0000000000000000     
   1.1129710469900309E-002   1.3233596021582784E-002   0.0000000000000000     
   1.3037888246550583E-002   1.6561252710854960E-002   0.0000000000000000     
   1.4955443374741221E-002   2.0169566965580775E-002   0.0000000000000000     
   2.4627153138592199E-002   2.2824480150055428E-002   0.0000000000000000     
   2.7531930216105713E-002   2.6673076868662944E-002   0.0000000000000000     