 <VTKFile type="UnstructuredGrid"  version="0.1"   >
 <UnstructuredGrid>
 <Piece  NumberOfPoints="          1600 "  NumberOfCells="         1024 ">
 <Points>
 <DataArray  type="Float64" NumberOfComponents="3"  format="ascii" >
   0.0000000000000000        0.0000000000000000        0.0000000000000000     
   3.1250000000000000E-002   0.0000000000000000        0.0000000000000000     
   6.2500000000000000E-002   0.0000000000000000        0.0000000000000000     
   9.3750000000000000E-002   0.0000000000000000        0.0000000000000000     
  0.12500000000000000        0.0000000000000000        0.0000000000000000     
   0.0000000000000000        3.1250000000000000E-002   0.0000000000000000     
   3.1250000000000000E-002   3.1250000000000000E-002   0.0000000000000000     
   6.2500000000000000E-002   3.1250000000000000E-002   0.0000000000000000     
   9.3750000000000000E-002   3.1250000000000000E-002   0.0000000000000000     
  0.12500000000000000        3.1250000000000000E-002   0.0000000000000000     
   0.0000000000000000        6.2500000000000000E-002   0.0000000000000000     
   3.1250000000000000E-002   6.2500000000000000E-002   0.0000000000000000     
   6.2500000000000000E-002   6.2500000000000000E-002   0.0000000000000000     
   9.3750000000000000E-002   6.2500000000000000E-002   0.0000000000000000     
  0.12500000000000000        6.2500000000000000E-002   0.0000000000000000     
   0.0000000000000000        9.3750000000000000E-002   0.0000000000000000     
   3.1250000000000000E-002   9.3750000000000000E-002   0.0000000000000000     
   6.2500000000000000E-002   9.3750000000000000E-002   0.0000000000000000     
   9.3750000000000000E-002   9.3750000000000000E-002   0.0000000000000000     
  0.12500000000000000        9.3750000000000000E-002   0.0000000000000000     
   0.0000000000000000       0.12500000000000000        0.0000000000000000     
   3.1250000000000000E-002  0.12500000000000000        0.0000000000000000     
   6.2500000000000000E-002  0.12500000000000000        0.0000000000000000     
   9.3750000000000000E-002  0.12500000000000000        0.0000000000000000     
  0.12500000000000000       0.12500000000000000        0.0000000000000000     
  0.12500000000000000        0.0000000000000000        0.0000000000000000     
  0.15625000000000000        0.0000000000000000        0.0000000000000000     
  0.18750000000000000        0.0000000000000000        0.0000000000000000     
  0.21875000000000000        0.0000000000000000        0.0000000000000000     
  0.25000000000000000        0.0000000000000000        0.0000000000000000     
  0.12500000000000000        3.1250000000000000E-002   0.0000000000000000     
  0.15625000000000000        3.1250000000000000E-002   0.0000000000000000     
  0.18750000000000000        3.1250000000000000E-002   0.0000000000000000     
  0.21875000000000000        3.1250000000000000E-002   0.0000000000000000     
  0.25000000000000000        3.1250000000000000E-002   0.0000000000000000     
  0.12500000000000000        6.2500000000000000E-002   0.0000000000000000     
  0.15625000000000000        6.2500000000000000E-002   0.0000000000000000     
  0.18750000000000000        6.2500000000000000E-002   0.0000000000000000     
  0.21875000000000000        6.2500000000000000E-002   0.0000000000000000     
  0.25000000000000000        6.2500000000000000E-002   0.0000000000000000     
  0.12500000000000000        9.3750000000000000E-002   0.0000000000000000     
  0.15625000000000000        9.3750000000000000E-002   0.0000000000000000     
  0.18750000000000000        9.3750000000000000E-002   0.0000000000000000     
  0.21875000000000000        9.3750000000000000E-002   0.0000000000000000     
  0.25000000000000000        9.3750000000000000E-002   0.0000000000000000     
  0.12500000000000000       0.12500000000000000        0.0000000000000000     
  0.15625000000000000       0.12500000000000000        0.0000000000000000     
  0.18750000000000000       0.12500000000000000        0.0000000000000000     
  0.21875000000000000       0.12500000000000000        0.0000000000000000     
  0.25000000000000000       0.12500000000000000        0.0000000000000000     
  0.25000000000000000        0.0000000000000000        0.0000000000000000     
  0.28125000000000000        0.0000000000000000        0.0000000000000000     
  0.31250000000000000        0.0000000000000000        0.0000000000000000     
  0.34375000000000000        0.0000000000000000        0.0000000000000000     
  0.37500000000000000        0.0000000000000000        0.0000000000000000     
  0.25000000000000000        3.1250000000000000E-002   0.0000000000000000     
  0.28125000000000000        3.1250000000000000E-002   0.0000000000000000     
  0.31250000000000000        3.1250000000000000E-002   0.0000000000000000     
  0.34375000000000000        3.1250000000000000E-002   0.0000000000000000     
  0.37500000000000000        3.1250000000000000E-002   0.0000000000000000     
  0.25000000000000000        6.2500000000000000E-002   0.0000000000000000     
  0.28125000000000000        6.2500000000000000E-002   0.0000000000000000     
  0.31250000000000000        6.2500000000000000E-002   0.0000000000000000     
  0.34375000000000000        6.2500000000000000E-002   0.0000000000000000     
  0.37500000000000000        6.2500000000000000E-002   0.0000000000000000     
  0.25000000000000000        9.3750000000000000E-002   0.0000000000000000     
  0.28125000000000000        9.3750000000000000E-002   0.0000000000000000     
  0.31250000000000000        9.3750000000000000E-002   0.0000000000000000     
  0.34375000000000000        9.3750000000000000E-002   0.0000000000000000     
  0.37500000000000000        9.3750000000000000E-002   0.0000000000000000     
  0.25000000000000000       0.12500000000000000        0.0000000000000000     
  0.28125000000000000       0.12500000000000000        0.0000000000000000     
  0.31250000000000000       0.12500000000000000        0.0000000000000000     
  0.34375000000000000       0.12500000000000000        0.0000000000000000     
  0.37500000000000000       0.12500000000000000        0.0000000000000000     
  0.37500000000000000        0.0000000000000000        0.0000000000000000     
  0.40625000000000000        0.0000000000000000        0.0000000000000000     
  0.43750000000000000        0.0000000000000000        0.0000000000000000     
  0.46875000000000000        0.0000000000000000        0.0000000000000000     
  0.50000000000000000        0.0000000000000000        0.0000000000000000     
  0.37500000000000000        3.1250000000000000E-002   0.0000000000000000     
  0.40625000000000000        3.1250000000000000E-002   0.0000000000000000     
  0.43750000000000000        3.1250000000000000E-002   0.0000000000000000     
  0.46875000000000000        3.1250000000000000E-002   0.0000000000000000     
  0.50000000000000000        3.1250000000000000E-002   0.0000000000000000     
  0.37500000000000000        6.2500000000000000E-002   0.0000000000000000     
  0.40625000000000000        6.2500000000000000E-002   0.0000000000000000     
  0.43750000000000000        6.2500000000000000E-002   0.0000000000000000     
  0.46875000000000000        6.2500000000000000E-002   0.0000000000000000     
  0.50000000000000000        6.2500000000000000E-002   0.0000000000000000     
  0.37500000000000000        9.3750000000000000E-002   0.0000000000000000     
  0.40625000000000000        9.3750000000000000E-002   0.0000000000000000     
  0.43750000000000000        9.3750000000000000E-002   0.0000000000000000     
  0.46875000000000000        9.3750000000000000E-002   0.0000000000000000     
  0.50000000000000000        9.3750000000000000E-002   0.0000000000000000     
  0.37500000000000000       0.12500000000000000        0.0000000000000000     
  0.40625000000000000       0.12500000000000000        0.0000000000000000     
  0.43750000000000000       0.12500000000000000        0.0000000000000000     
  0.46875000000000000       0.12500000000000000        0.0000000000000000     
  0.50000000000000000       0.12500000000000000        0.0000000000000000     
  0.50000000000000000        0.0000000000000000        0.0000000000000000     
  0.53125000000000000        0.0000000000000000        0.0000000000000000     
  0.56250000000000000        0.0000000000000000        0.0000000000000000     
  0.59375000000000000        0.0000000000000000        0.0000000000000000     
  0.62500000000000000        0.0000000000000000        0.0000000000000000     
  0.50000000000000000        3.1250000000000000E-002   0.0000000000000000     
  0.53125000000000000        3.1250000000000000E-002   0.0000000000000000     
  0.56250000000000000        3.1250000000000000E-002   0.0000000000000000     
  0.59375000000000000        3.1250000000000000E-002   0.0000000000000000     
  0.62500000000000000        3.1250000000000000E-002   0.0000000000000000     
  0.50000000000000000        6.2500000000000000E-002   0.0000000000000000     
  0.53125000000000000        6.2500000000000000E-002   0.0000000000000000     
  0.56250000000000000        6.2500000000000000E-002   0.0000000000000000     
  0.59375000000000000        6.2500000000000000E-002   0.0000000000000000     
  0.62500000000000000        6.2500000000000000E-002   0.0000000000000000     
  0.50000000000000000        9.3750000000000000E-002   0.0000000000000000     
  0.53125000000000000        9.3750000000000000E-002   0.0000000000000000     
  0.56250000000000000        9.3750000000000000E-002   0.0000000000000000     
  0.59375000000000000        9.3750000000000000E-002   0.0000000000000000     
  0.62500000000000000        9.3750000000000000E-002   0.0000000000000000     
  0.50000000000000000       0.12500000000000000        0.0000000000000000     
  0.53125000000000000       0.12500000000000000        0.0000000000000000     
  0.56250000000000000       0.12500000000000000        0.0000000000000000     
[...]
 <PointData>
 <DataArray  type="Float64" Name="disp" NumberOfComponents="3" format="ascii">
   0.0000000000000000        0.0000000000000000        0.0000000000000000     
   1.4535796700172979E-003  -6.1485609187221677E-003   0.0000000000000000     
   4.5792608590222621E-003  -1.1586471007073551E-002   0.0000000000000000     
   9.3770435670148915E-003  -1.6313730265054151E-002   0.0000000000000000     
   1.5846927793995189E-002  -2.0330338692663964E-002   0.0000000000000000     
   0.0000000000000000        0.0000000000000000        0.0000000000000000     
   3.1307286315126848E-003  -5.3422032637829367E-003   0.0000000000000000     
   7.6858276407872029E-003  -1.1360229521385917E-002   0.0000000000000000     
   1.3665297027823558E-002  -1.8054078772808943E-002   0.0000000000000000     
   2.1069136792621738E-002  -2.5423751018052016E-002   0.0000000000000000     
   0.0000000000000000        0.0000000000000000        0.0000000000000000     
   4.2227304811159596E-003  -5.0980700689101256E-003   0.0000000000000000     
   9.5748700997692129E-003  -1.1663499883228423E-002   0.0000000000000000     
   1.6056418855959764E-002  -1.9696289442954897E-002   0.0000000000000000     
   2.3667376749687608E-002  -2.9196438748089540E-002   0.0000000000000000     
   0.0000000000000000        0.0000000000000000        0.0000000000000000     
   4.7295852188271210E-003  -5.4161613341037369E-003   0.0000000000000000     
   1.0246388235968292E-002  -1.2496282092601074E-002   0.0000000000000000     
   1.6550409051423513E-002  -2.1240362275492006E-002   0.0000000000000000     
   2.3641647665192785E-002  -3.1648401882776546E-002   0.0000000000000000     
   0.0000000000000000        0.0000000000000000        0.0000000000000000     
   4.6512928446461694E-003  -6.2964770593637691E-003   0.0000000000000000     
   9.7003820493844380E-003  -1.3858576149503862E-002   0.0000000000000000     
   1.5147267614214803E-002  -2.2686297270420281E-002   0.0000000000000000     
   2.0991949539137269E-002  -3.2779640422113024E-002   0.0000000000000000     
   1.5846927793995189E-002  -2.0330338692663964E-002   0.0000000000000000     
   2.4860987602534808E-002  -2.5345467290779564E-002   0.0000000000000000     
   3.7291297055205411E-002  -3.3068287060277528E-002   0.0000000000000000     
   5.3137856152006988E-002  -4.3498798001157857E-002   0.0000000000000000     
   7.2400664892939531E-002  -5.6637000113420544E-002   0.0000000000000000     
   2.1069136792621738E-002  -2.5423751018052016E-002   0.0000000000000000     
   3.0398713838992616E-002  -3.3140835662037210E-002   0.0000000000000000     
   4.2155395070747025E-002  -4.0876922109686589E-002   0.0000000000000000     
   5.6339180487884964E-002  -4.8632010361000171E-002   0.0000000000000000     
   7.2950070090406452E-002  -5.6406100415977933E-002   0.0000000000000000     
   2.3667376749687608E-002  -2.9196438748089540E-002   0.0000000000000000     
   3.2581891013074585E-002  -3.8549274562350064E-002   0.0000000000000000     
   4.2974108878242524E-002  -4.6140123649454169E-002   0.0000000000000000     
   5.4844030345191426E-002  -5.1968986009401842E-002   0.0000000000000000     
   6.8191655413921304E-002  -5.6035861642193097E-002   0.0000000000000000     
   2.3641647665192785E-002  -3.1648401882776546E-002   0.0000000000000000     
   3.1410519124780711E-002  -4.1570783991718138E-002   0.0000000000000000     
   3.9747438477691903E-002  -4.8857891679580254E-002   0.0000000000000000     
   4.8652405723926359E-002  -5.3509724946362885E-002   0.0000000000000000     
   5.8125420863484087E-002  -5.5526283792066033E-002   0.0000000000000000     
   2.0991949539137269E-002  -3.2779640422113024E-002   0.0000000000000000     
   2.6884598174110999E-002  -4.2205363950141427E-002   0.0000000000000000     
   3.2475383869095167E-002  -4.9030226200064850E-002   0.0000000000000000     
   3.7764306624089757E-002  -5.3254227171883294E-002   0.0000000000000000     
   4.2751366439094787E-002  -5.4877366865596751E-002   0.0000000000000000     
   7.2400664892939531E-002  -5.6637000113420544E-002   0.0000000000000000     
   9.2569047966669010E-002  -6.6456012675239456E-002   0.0000000000000000     
  0.11113233006186136       -6.6928954964788456E-002   0.0000000000000000     
  0.12809051117851655       -5.8055826982067543E-002   0.0000000000000000     
  0.14344359131663464       -3.9836628727076710E-002   0.0000000000000000     
   7.2950070090406452E-002  -5.6406100415977933E-002   0.0000000000000000     
   9.0337270381173534E-002  -6.2657004577233000E-002   0.0000000000000000     
  0.10684998786304825       -6.5842535147378464E-002   0.0000000000000000     
  0.12248822253603063       -6.5962692126414341E-002   0.0000000000000000     
  0.13725197440012066       -6.3017475514340601E-002   0.0000000000000000     
   6.8191655413921304E-002  -5.6035861642193097E-002   0.0000000000000000     
   8.2237395294922147E-002  -5.9856751362830959E-002   0.0000000000000000     
   9.6201661198683952E-002  -6.4947655986318423E-002   0.0000000000000000     
  0.11008445312520675       -7.1308575512655514E-002   0.0000000000000000     
  0.12388577107449052       -7.8939509941842234E-002   0.0000000000000000     
   5.8125420863484087E-002  -5.5526283792066033E-002   0.0000000000000000     
   6.8269422707914848E-002  -5.8055253032033315E-002   0.0000000000000000     
   7.9187350068768481E-002  -6.4244317481608346E-002   0.0000000000000000     
   9.0879202946044929E-002  -7.4093477140791092E-002   0.0000000000000000     
  0.10334498133974424       -8.7602732009581602E-002   0.0000000000000000     
   4.2751366439094787E-002  -5.4877366865596751E-002   0.0000000000000000     
   4.8433352620151665E-002  -5.7252509584840093E-002   0.0000000000000000     
   5.5807054473301795E-002  -6.3732519633248205E-002   0.0000000000000000     
   6.4872471998545164E-002  -7.4317397010821060E-002   0.0000000000000000     
   7.5629605195881799E-002  -8.9007141717558719E-002   0.0000000000000000     
  0.14344359131663464       -3.9836628727076710E-002   0.0000000000000000     
  0.16877182711654926       -2.3013496285604122E-002   0.0000000000000000     
  0.21565547521859407       -1.8328565743437927E-002   0.0000000000000000     
  0.28409453562276915       -2.5781837100578124E-002   0.0000000000000000     
  0.37408900832907438       -4.5373310357024715E-002   0.0000000000000000     
  0.13725197440012066       -6.3017475514340601E-002   0.0000000000000000     
  0.16570045391043992       -6.0032217477612379E-002   0.0000000000000000     
  0.22239287152211004       -6.0032250182684724E-002   0.0000000000000000     
  0.30732922723513106       -6.3017573629557677E-002   0.0000000000000000     
  0.42050952104950295       -6.8988187818231198E-002   0.0000000000000000     
  0.12388577107449052       -7.8939509941842234E-002   0.0000000000000000     
  0.15072446046505247       -8.5063439274844041E-002   0.0000000000000000     
  0.20371936671540983       -8.6903343512626324E-002   0.0000000000000000     
  0.28287048982556268       -8.4459222655189181E-002   0.0000000000000000     
  0.38817782979551085       -7.7731076702532542E-002   0.0000000000000000     
  0.10334498133974424       -8.7602732009581602E-002   0.0000000000000000     
  0.12384384678038687       -9.8107161677299076E-002   0.0000000000000000     
  0.15963496079849340       -9.8941845733262757E-002   0.0000000000000000     
  0.21071832339406377       -9.0106784177472643E-002   0.0000000000000000     
  0.27709393456709808       -7.1601977009928722E-002   0.0000000000000000     
   7.5629605195881799E-002  -8.9007141717558719E-002   0.0000000000000000     
   8.5058612856443172E-002  -9.9163384684977540E-002   0.0000000000000000     
   9.0139653771360739E-002  -9.6147756844593993E-002   0.0000000000000000     
   9.0872727940634501E-002  -7.9960258196408077E-002   0.0000000000000000     
   8.7257835364264486E-002  -5.0600888740419757E-002   0.0000000000000000     
  0.37408900832907438       -4.5373310357024715E-002   0.0000000000000000     
  0.44950065726746763       -6.4141574647537627E-002   0.0000000000000000     
  0.47419124636790688       -6.9125219106876787E-002   0.0000000000000000     
  0.44816077563039192       -6.0324243735042180E-002   0.0000000000000000     
  0.37140924505492290       -3.7738648532033840E-002   0.0000000000000000     
  0.42050952104950295       -6.8988187818231198E-002   0.0000000000000000     
  0.51339057146895162       -7.0535147448404487E-002   0.0000000000000000     
  0.53742919699720293       -6.0249507219776691E-002   0.0000000000000000     
  0.49262539763425695       -3.8131267132347831E-002   0.0000000000000000     
  0.37897917338011367       -4.1804271861178889E-003   0.0000000000000000     
  0.38817782979551085       -7.7731076702532542E-002   0.0000000000000000     
  0.47247173692698069       -6.4639301113381273E-002   0.0000000000000000     
  0.48858256152169843       -4.3104291346460245E-002   0.0000000000000000     
  0.43651030357966403       -1.3126047401769442E-002   0.0000000000000000     
  0.31625496310087736        2.5295430720691132E-002   0.0000000000000000     
  0.27709393456709808       -7.1601977009928722E-002   0.0000000000000000     
  0.32674415364155490       -4.6454035642467993E-002   0.0000000000000000     
  0.32765133994139317       -1.7689571486927423E-002   0.0000000000000000     
  0.27981549346661283        1.4691415456692985E-002   0.0000000000000000     
  0.18323661421721393        5.0688925188393227E-002   0.0000000000000000     
   8.7257835364264486E-002  -5.0600888740419757E-002   0.0000000000000000     
   7.6207821612674254E-002  -1.5979351035664627E-002   0.0000000000000000     
   5.4635532256287339E-002   1.5994652358821769E-002   0.0000000000000000     
   2.2540967295103805E-002   4.5321121443039458E-002   0.0000000000000000     
  -2.0075873270876482E-002   7.2000056216988392E-002   0.0000000000000000     
  0.37140924505492290       -3.7738648532033840E-002   0.0000000000000000     
  0.27719489861464514       -1.0600748280663399E-002   0.0000000000000000     
  0.19877598028270407        1.1857142236257478E-002   0.0000000000000000     
  0.13615249005909977        2.9635023018728782E-002   0.0000000000000000     
   8.9324427943832177E-002   4.2732894066750529E-002   0.0000000000000000     
  0.37897917338011367       -4.1804271861178889E-003   0.0000000000000000     
  0.24965017071451695        3.0516922756319852E-002   0.0000000000000000     
  0.15779803611721077        5.4874692832372111E-002   0.0000000000000000     
  0.10342276958819516        6.8892883042038874E-002   0.0000000000000000     
   8.6524371127470079E-002   7.2571493385320138E-002   0.0000000000000000     
  0.31625496310087736        2.5295430720691132E-002   0.0000000000000000     
  0.18501821676063190        6.0699104133167717E-002   0.0000000000000000     
  0.10000174123422094        8.1623933947906513E-002   0.0000000000000000     
   6.1205536521644413E-002   8.8069920164907514E-002   0.0000000000000000     
   6.8629602622902353E-002   8.0037062784170748E-002   0.0000000000000000     
  0.18323661421721393        5.0688925188393227E-002   0.0000000000000000     
   8.3299036752989983E-002   7.9945795849880166E-002   0.0000000000000000     
   2.5387095633734511E-002   9.2104865582860684E-002   0.0000000000000000     
   9.5007908594475290E-003   8.7166134387334740E-002   0.0000000000000000     
   3.5640122430129033E-002   6.5129602263302361E-002   0.0000000000000000     
  -2.0075873270876482E-002   7.2000056216988392E-002   0.0000000000000000     
  -5.5507369308408799E-002   8.8256997906457246E-002   0.0000000000000000     
  -6.6045900684248454E-002   8.6317487737234619E-002   0.0000000000000000     
  -5.1691467398395474E-002   6.6181525709320524E-002   0.0000000000000000     
  -1.2444069450849887E-002   2.7849111822714968E-002   0.0000000000000000     
   8.9324427943832177E-002   4.2732894066750529E-002   0.0000000000000000     
   6.4289317866976087E-002   5.0380616807995077E-002   0.0000000000000000     
   6.7044683758606241E-002   5.1808052670134788E-002   0.0000000000000000     
   9.7590525618722682E-002   4.7015201653169664E-002   0.0000000000000000     
  0.15592684344732538        3.6002063757099703E-002   0.0000000000000000     
   8.6524371127470079E-002   7.2571493385320138E-002   0.0000000000000000     
   8.8449285428430044E-002   6.8647779871666065E-002   0.0000000000000000     
   9.0543957184469587E-002   5.9858998510526742E-002   0.0000000000000000     
   9.2808386395588749E-002   4.6205149301902199E-002   0.0000000000000000     
   9.5242573061787461E-002   2.7686232245792398E-002   0.0000000000000000     
   6.8629602622902353E-002   8.0037062784170748E-002   0.0000000000000000     
   9.0903191214295687E-002   6.5027979796425092E-002   0.0000000000000000     
   9.6655553972125385E-002   5.0545289192399361E-002   0.0000000000000000     
   8.5886690896391393E-002   3.6588990972093595E-002   0.0000000000000000     
   5.8596601987093752E-002   2.3159085135507764E-002   0.0000000000000000     
   3.5640122430129033E-002   6.5129602263302361E-002   0.0000000000000000     
   7.1651035224573056E-002   3.9521216582272138E-002   0.0000000000000000     
   8.5379474121573595E-002   2.3866924715752628E-002   0.0000000000000000     
   7.6825439121130643E-002   1.8166726663743853E-002   0.0000000000000000     
   4.5988930223244205E-002   2.2420622426245811E-002   0.0000000000000000     
  -1.2444069450849887E-002   2.7849111822714968E-002   0.0000000000000000     
   3.0692817459262084E-002  -7.8725097707927696E-003   0.0000000000000000     
   5.6715717632814196E-002  -2.0176094919413454E-002   0.0000000000000000     
   6.5624631069806469E-002  -9.0616436231470057E-003   0.0000000000000000     
   5.7419557770238869E-002   2.5470844118006507E-002   0.0000000000000000     
  0.15592684344732538        3.6002063757099703E-002   0.0000000000000000     
  0.19599799203576052        3.5517581657628881E-002   0.0000000000000000     
  0.17174832617537436        6.2310698030461166E-002   0.0000000000000000     
   8.3177845866166805E-002  0.11638141287559654        0.0000000000000000     
  -6.9713448891862054E-002  0.19772972619303503        0.0000000000000000     
   9.5242573061787461E-002   2.7686232245792398E-002   0.0000000000000000     
   9.5704271098131649E-002   1.7970145584087955E-002   0.0000000000000000     
   9.2051234419687183E-002   3.0724787558679422E-002   0.0000000000000000     
   8.4283463026454036E-002   6.5950158169566814E-002   0.0000000000000000     
   7.2400956918432235E-002  0.12364625741675012        0.0000000000000000     
   5.8596601987093752E-002   2.3159085135507764E-002   0.0000000000000000     
   3.8297012769751282E-002   1.7504907924957777E-002   0.0000000000000000     
   4.8499648769882886E-002   2.6875795582759501E-002   0.0000000000000000     
   8.9204509987488509E-002   5.1271748108912954E-002   0.0000000000000000     
  0.16041159642256822        9.0692765503418094E-002   0.0000000000000000     
   4.5988930223244205E-002   2.2420622426245811E-002   0.0000000000000000     
   2.3776217050619435E-002   3.4121868680238358E-002   0.0000000000000000     
   4.1093569225961440E-002   5.0763722102701407E-002   0.0000000000000000     
   9.7940986749270251E-002   7.2346182693634922E-002   0.0000000000000000     
  0.19431846962054580        9.8869250453038959E-002   0.0000000000000000     
   5.7419557770238869E-002   2.5470844118006507E-002   0.0000000000000000     
   5.2141883940736114E-002   6.7821027849929674E-002   0.0000000000000000     
   6.9832995787922889E-002  0.10238856711850511        0.0000000000000000     
  0.11049289331179923       0.12917346192373283        0.0000000000000000     
  0.17412157651236509       0.14817571226561271        0.0000000000000000     
   0.0000000000000000        0.0000000000000000        0.0000000000000000     
   4.6512928446461694E-003  -6.2964770593637691E-003   0.0000000000000000     
   9.7003820493844380E-003  -1.3858576149503862E-002   0.0000000000000000     
   1.5147267614214803E-002  -2.2686297270420281E-002   0.0000000000000000     
   2.0991949539137269E-002  -3.2779640422113024E-002   0.0000000000000000     
   0.0000000000000000        0.0000000000000000        0.0000000000000000     
   4.2287452885200584E-003  -7.2895614687437573E-003   0.0000000000000000     
   8.4670158972800329E-003  -1.5163384745763880E-002   0.0000000000000000     
   1.2714811826279924E-002  -2.3621469831060369E-002   0.0000000000000000     
   1.6972133075519730E-002  -3.2663816724633227E-002   0.0000000000000000     
   0.0000000000000000        0.0000000000000000        0.0000000000000000     
   3.7028344803957435E-003  -7.9459587862972334E-003   0.0000000000000000     
   7.0764541369174629E-003  -1.5823710573208215E-002   0.0000000000000000     
   1.0120858969565157E-002  -2.3633255360732946E-002   0.0000000000000000     
   1.2836048978338831E-002  -3.1374593148871414E-002   0.0000000000000000     
   0.0000000000000000        0.0000000000000000        0.0000000000000000     
   3.0735604202732233E-003  -8.2656690120241974E-003   0.0000000000000000     
   5.5286967682967253E-003  -1.5839553631836867E-002   0.0000000000000000     
   7.3654090440705075E-003  -2.2721653859438005E-002   0.0000000000000000     
   8.5836972475945711E-003  -2.8911969694827611E-002   0.0000000000000000     
   0.0000000000000000        0.0000000000000000        0.0000000000000000     
   2.3409231081524978E-003  -8.2486921459246527E-003   0.0000000000000000     
   3.8237437914178216E-003  -1.5210913921649832E-002   0.0000000000000000     
   4.4484620497959714E-003  -2.0886665327175542E-002   0.0000000000000000     
   4.2150778832869473E-003  -2.5275946362501783E-002   0.0000000000000000     
   2.0991949539137269E-002  -3.2779640422113024E-002   0.0000000000000000     
   2.6884598174110999E-002  -4.2205363950141427E-002   0.0000000000000000     
   3.2475383869095167E-002  -4.9030226200064850E-002   0.0000000000000000     
   3.7764306624089757E-002  -5.3254227171883294E-002   0.0000000000000000     
   4.2751366439094787E-002  -5.4877366865596751E-002   0.0000000000000000     
   1.6972133075519730E-002  -3.2663816724633227E-002   0.0000000000000000     
   2.0758195497793060E-002  -4.0989117470003604E-002   0.0000000000000000     
   2.3592214945893541E-002  -4.7296064110692690E-002   0.0000000000000000     
   2.5474191419821154E-002  -5.1584656646700443E-002   0.0000000000000000     
   2.6404124919575903E-002  -5.3854895078026897E-002   0.0000000000000000     
   1.2836048978338831E-002  -3.1374593148871414E-002   0.0000000000000000     
   1.4785378432554518E-002  -3.8458147583688353E-002   0.0000000000000000     
   1.5532201601528260E-002  -4.4294342311248458E-002   0.0000000000000000     
   1.5076518485260055E-002  -4.8883177331551730E-002   0.0000000000000000     
   1.3418329083749906E-002  -5.2224652644598149E-002   0.0000000000000000     
   8.5836972475945711E-003  -2.8911969694827611E-002   0.0000000000000000     
   8.9661469783953590E-003  -3.4612454291195673E-002   0.0000000000000000     
   8.2953438359993237E-003  -4.0025060801732175E-002   0.0000000000000000     
   6.5712878204064670E-003  -4.5149789226437122E-002   0.0000000000000000     
   3.7939789316167854E-003  -4.9986639565310520E-002   0.0000000000000000     
   4.2150778832869473E-003  -2.5275946362501783E-002   0.0000000000000000     
   3.3005011353155881E-003  -2.9452037592525550E-002   0.0000000000000000     
   1.8816416493067369E-003  -3.4488219582143834E-002   0.0000000000000000     
  -4.1500574739611622E-005  -4.0384492331356645E-002   0.0000000000000000     
  -2.4689255368234506E-003  -4.7140855840163982E-002   0.0000000000000000     
   4.2751366439094787E-002  -5.4877366865596751E-002   0.0000000000000000     
   4.8433352620151665E-002  -5.7252509584840093E-002   0.0000000000000000     