 <VTKFile type="UnstructuredGrid"  version="0.1"   >
 <UnstructuredGrid>
 <Piece  NumberOfPoints="          1600 "  NumberOfCells="         1024 ">
 <Points>
 <DataArray  type="Float64" NumberOfComponents="3"  format="ascii" >
   0.0000000000000000        0.0000000000000000        0.0000000000000000     
   3.1250000000000000E-002   0.0000000000000000        0.0000000000000000     
   6.2500000000000000E-002   0.0000000000000000        0.0000000000000000     
   9.3750000000000000E-002   0.0000000000000000        0.0000000000000000     
  0.12500000000000000        0.0000000000000000        0.0000000000000000     
   0.0000000000000000        3.1250000000000000E-002   0.0000000000000000     
   3.1250000000000000E-002   3.1250000000000000E-002   0.0000000000000000     
   6.2500000000000000E-002   3.1250000000000000E-002   0.0000000000000000     
   9.3750000000000000E-002   3.1250000000000000E-002   0.0000000000000000     
  0.12500000000000000        3.1250000000000000E-002   0.0000000000000000     
   0.0000000000000000        6.2500000000000000E-002   0.0000000000000000     
   3.1250000000000000E-002   6.2500000000000000E-002   0.0000000000000000     
   6.2500000000000000E-002   6.2500000000000000E-002   0.0000000000000000     
   9.3750000000000000E-002   6.2500000000000000E-002   0.0000000000000000     
  0.12500000000000000        6.2500000000000000E-002   0.0000000000000000     
   0.0000000000000000        9.3750000000000000E-002   0.0000000000000000     
   3.1250000000000000E-002   9.3750000000000000E-002   0.0000000000000000     
   6.2500000000000000E-002   9.3750000000000000E-002   0.0000000000000000     
   9.3750000000000000E-002   9.3750000000000000E-002   0.0000000000000000     
  0.12500000000000000        9.3750000000000000E-002   0.0000000000000000     
   0.0000000000000000       0.12500000000000000        0.0000000000000000     
   3.1250000000000000E-002  0.12500000000000000        0.0000000000000000     
   6.2500000000000000E-002  0.12500000000000000        0.0000000000000000     
   9.3750000000000000E-002  0.12500000000000000        0.0000000000000000     
  0.12500000000000000       0.12500000000000000        0.0000000000000000     
  0.12500000000000000        0.0000000000000000        0.0000000000000000     
  0.15625000000000000        0.0000000000000000        0.0000000000000000     
  0.18750000000000000        0.0000000000000000        0.0000000000000000     
  0.21875000000000000        0.0000000000000000        0.0000000000000000     
  0.25000000000000000        0.0000000000000000        0.0000000000000000     
  0.12500000000000000        3.1250000000000000E-002   0.0000000000000000     
  0.15625000000000000        3.1250000000000000E-002   0.0000000000000000     
  0.18750000000000000        3.1250000000000000E-002   0.0000000000000000     
  0.21875000000000000        3.1250000000000000E-002   0.0000000000000000     
  0.25000000000000000        3.1250000000000000E-002   0.0000000000000000     
  0.12500000000000000        6.2500000000000000E-002   0.0000000000000000     
  0.15625000000000000        6.2500000000000000E-002   0.0000000000000000     
  0.18750000000000000        6.2500000000000000E-002   0.0000000000000000     
  0.21875000000000000        6.2500000000000000E-002   0.0000000000000000     
  0.25000000000000000        6.2500000000000000E-002   0.0000000000000000     
  0.12500000000000000        9.3750000000000000E-002   0.0000000000000000     
  0.15625000000000000        9.3750000000000000E-002   0.0000000000000000     
  0.18750000000000000        9.3750000000000000E-002   0.0000000000000000     
  0.21875000000000000        9.3750000000000000E-002   0.0000000000000000     
  0.25000000000000000        9.3750000000000000E-002   0.0000000000000000     
  0.12500000000000000       0.12500000000000000        0.0000000000000000     
  0.15625000000000000       0.12500000000000000        0.0000000000000000     
  0.18750000000000000       0.12500000000000000        0.0000000000000000     
  0.21875000000000000       0.12500000000000000        0.0000000000000000     
  0.25000000000000000       0.12500000000000000        0.0000000000000000     
  0.25000000000000000        0.0000000000000000        0.0000000000000000     
  0.28125000000000000        0.0000000000000000        0.0000000000000000     
  0.31250000000000000        0.0000000000000000        0.0000000000000000     
  0.34375000000000000        0.0000000000000000        0.0000000000000000     
  0.37500000000000000        0.0000000000000000        0.0000000000000000     
  0.25000000000000000        3.1250000000000000E-002   0.0000000000000000     
  0.28125000000000000        3.1250000000000000E-002   0.0000000000000000     
  0.31250000000000000        3.1250000000000000E-002   0.0000000000000000     
  0.34375000000000000        3.1250000000000000E-002   0.0000000000000000     
  0.37500000000000000        3.1250000000000000E-002   0.0000000000000000     
  0.25000000000000000        6.2500000000000000E-002   0.0000000000000000     
  0.28125000000000000        6.2500000000000000E-002   0.0000000000000000     
  0.31250000000000000        6.2500000000000000E-002   0.0000000000000000     
  0.34375000000000000        6.2500000000000000E-002   0.0000000000000000     
  0.37500000000000000        6.2500000000000000E-002   0.0000000000000000     
  0.25000000000000000        9.3750000000000000E-002   0.0000000000000000     
  0.28125000000000000        9.3750000000000000E-002   0.0000000000000000     
  0.31250000000000000        9.3750000000000000E-002   0.0000000000000000     
  0.34375000000000000        9.3750000000000000E-002   0.0000000000000000     
  0.37500000000000000        9.3750000000000000E-002   0.0000000000000000     
  0.25000000000000000       0.12500000000000000        0.0000000000000000     
  0.28125000000000000       0.12500000000000000        0.0000000000000000     
  0.31250000000000000       0.12500000000000000        0.0000000000000000     
  0.34375000000000000       0.12500000000000000        0.0000000000000000     
  0.37500000000000000       0.12500000000000000        0.0000000000000000     
  0.37500000000000000        0.0000000000000000        0.0000000000000000     
  0.40625000000000000        0.0000000000000000        0.0000000000000000     
  0.43750000000000000        0.0000000000000000        0.0000000000000000     
  0.46875000000000000        0.0000000000000000        0.0000000000000000     
  0.50000000000000000        0.0000000000000000        0.0000000000000000     
  0.37500000000000000        3.1250000000000000E-002   0.0000000000000000     
  0.40625000000000000        3.1250000000000000E-002   0.0000000000000000     
  0.43750000000000000        3.1250000000000000E-002   0.0000000000000000     
  0.46875000000000000        3.1250000000000000E-002   0.0000000000000000     
  0.50000000000000000        3.1250000000000000E-002   0.0000000000000000     
  0.37500000000000000        6.2500000000000000E-002   0.0000000000000000     
  0.40625000000000000        6.2500000000000000E-002   0.0000000000000000     
  0.43750000000000000        6.2500000000000000E-002   0.0000000000000000     
  0.46875000000000000        6.2500000000000000E-002   0.0000000000000000     
  0.50000000000000000        6.2500000000000000E-002   0.0000000000000000     
  0.37500000000000000        9.3750000000000000E-002   0.0000000000000000     
  0.40625000000000000        9.3750000000000000E-002   0.0000000000000000     
  0.43750000000000000        9.3750000000000000E-002   0.0000000000000000     
  0.46875000000000000        9.3750000000000000E-002   0.0000000000000000     
  0.50000000000000000        9.3750000000000000E-002   0.0000000000000000     
  0.37500000000000000       0.12500000000000000        0.0000000000000000     
  0.40625000000000000       0.12500000000000000        0.0000000000000000     
  0.43750000000000000       0.12500000000000000        0.0000000000000000     
  0.46875000000000000       0.12500000000000000        0.0000000000000000     
  0.50000000000000000       0.12500000000000000        0.0000000000000000     
  0.50000000000000000        0.0000000000000000        0.0000000000000000     
  0.53125000000000000        0.0000000000000000        0.0000000000000000     
  0.56250000000000000        0.0000000000000000        0.0000000000000000     
  0.59375000000000000        0.0000000000000000        0.0000000000000000     
  0.62500000000000000        0.0000000000000000        0.0000000000000000     
  0.50000000000000000        3.1250000000000000E-002   0.0000000000000000     
  0.53125000000000000        3.1250000000000000E-002   0.0000000000000000     
  0.56250000000000000        3.1250000000000000E-002   0.0000000000000000     
  0.59375000000000000        3.1250000000000000E-002   0.0000000000000000     
  0.62500000000000000        3.1250000000000000E-002   0.0000000000000000     
  0.50000000000000000        6.2500000000000000E-002   0.0000000000000000     
  0.53125000000000000        6.2500000000000000E-002   0.0000000000000000     
  0.56250000000000000        6.2500000000000000E-002   0.0000000000000000     
  0.59375000000000000        6.2500000000000000E-002   0.0000000000000000     
  0.62500000000000000        6.2500000000000000E-002   0.0000000000000000     
  0.50000000000000000        9.3750000000000000E-002   0.0000000000000000     
  0.53125000000000000        9.3750000000000000E-002   0.0000000000000000     
  0.56250000000000000        9.3750000000000000E-002   0.0000000000000000     
  0.59375000000000000        9.3750000000000000E-002   0.0000000000000000     
  0.62500000000000000        9.3750000000000000E-002   0.0000000000000000     
  0.50000000000000000       0.12500000000000000        0.0000000000000000     
  0.53125000000000000       0.12500000000000000        0.0000000000000000     
  0.56250000000000000       0.12500000000000000        0.0000000000000000     
[...]
 <PointData>
 <DataArray  type="Float64" Name="disp" NumberOfComponents="3" format="ascii">
   0.0000000000000000        0.0000000000000000        0.0000000000000000     
   6.0956738459651064E-003   3.7906409102549158E-003   0.0000000000000000     
   1.1665576647718367E-002   7.3240122630107846E-003   0.0000000000000000     
   1.6709708405259781E-002   1.0600114058267607E-002   0.0000000000000000     
   2.1228069118589349E-002   1.3618946296025381E-002   0.0000000000000000     
   0.0000000000000000        0.0000000000000000        0.0000000000000000     
   4.8911437130528725E-003   3.0222014253419162E-003   0.0000000000000000     
   9.5735284570081305E-003   6.0605619961380305E-003   0.0000000000000000     
   1.4047154231865776E-002   9.1150817123883433E-003   0.0000000000000000     
   1.8312021037625810E-002   1.2185760574092857E-002   0.0000000000000000     
   0.0000000000000000        0.0000000000000000        0.0000000000000000     
   3.9537140606240098E-003   2.4250731085323591E-003   0.0000000000000000     
   7.9106976289834950E-003   5.0628404267531769E-003   0.0000000000000000     
   1.1870950705078452E-002   7.9133019546624526E-003   0.0000000000000000     
   1.5834473288908881E-002   1.0976457692260185E-002   0.0000000000000000     
   0.0000000000000000        0.0000000000000000        0.0000000000000000     
   3.2833848886785200E-003   1.9992559598262455E-003   0.0000000000000000     
   6.6770841636444537E-003   4.3308475548562222E-003   0.0000000000000000     
   1.0181097824897801E-002   6.9947747850899302E-003   0.0000000000000000     
   1.3795425872438562E-002   9.9910376505273710E-003   0.0000000000000000     
   0.0000000000000000        0.0000000000000000        0.0000000000000000     
   2.8801561972164021E-003   1.7447499792235745E-003   0.0000000000000000     
   5.8726880609910118E-003   3.8645833804471673E-003   0.0000000000000000     
   8.9775955913238281E-003   6.3595002036707787E-003   0.0000000000000000     
   1.2194878788214854E-002   9.2295004488944093E-003   0.0000000000000000     
   2.1228069118589349E-002   1.3618946296025381E-002   0.0000000000000000     
   2.5433291696534042E-002   1.6611572574734976E-002   0.0000000000000000     
   2.9538009047920845E-002   1.9809056492847261E-002   0.0000000000000000     
   3.3542221172749756E-002   2.3211398050362233E-002   0.0000000000000000     
   3.7445928071020762E-002   2.6818597247279891E-002   0.0000000000000000     
   1.8312021037625810E-002   1.2185760574092857E-002   0.0000000000000000     
   2.2406453308242397E-002   1.5341130087476125E-002   0.0000000000000000     
   2.6368775477669696E-002   1.8649721758762706E-002   0.0000000000000000     
   3.0198987545907718E-002   2.2111535587952598E-002   0.0000000000000000     
   3.3897089512956460E-002   2.5726571575045806E-002   0.0000000000000000     
   1.5834473288908881E-002   1.0976457692260185E-002   0.0000000000000000     
   1.9729791896596304E-002   1.4211097133243419E-002   0.0000000000000000     
   2.3485433044262233E-002   1.7576009771309197E-002   0.0000000000000000     
   2.7101396731906674E-002   2.1071195606457514E-002   0.0000000000000000     
   3.0577682959529628E-002   2.4696654638688371E-002   0.0000000000000000     
   1.3795425872438562E-002   9.9910376505273710E-003   0.0000000000000000     
   1.7403307461595768E-002   1.3221473712036864E-002   0.0000000000000000     
   2.0887981747698452E-002   1.6587920530486727E-002   0.0000000000000000     
   2.4249448730746616E-002   2.0090378105876966E-002   0.0000000000000000     
   2.7487708410740254E-002   2.3728846438207579E-002   0.0000000000000000     
   1.2194878788214854E-002   9.2295004488944093E-003   0.0000000000000000     
   1.5427000003240793E-002   1.2372259823856452E-002   0.0000000000000000     
   1.8576421587978353E-002   1.5685454036295305E-002   0.0000000000000000     
   2.1643143542427544E-002   1.9169083086210965E-002   0.0000000000000000     
   2.4627165866588356E-002   2.2823146973603436E-002   0.0000000000000000     
   3.7445928071020762E-002   2.6818597247279891E-002   0.0000000000000000     
   4.1253912840031964E-002   3.0624488808134717E-002   0.0000000000000000     
   4.4970958577081437E-002   3.4622907457461209E-002   0.0000000000000000     
   4.8597065282169186E-002   3.8813853195259353E-002   0.0000000000000000     
   5.2132232955295205E-002   4.3197326021529155E-002   0.0000000000000000     
   3.3897089512956460E-002   2.5726571575045806E-002   0.0000000000000000     
   3.7486001809118888E-002   2.9522882859632886E-002   0.0000000000000000     
   4.0988644864697964E-002   3.3528522581304385E-002   0.0000000000000000     
   4.4405018679693681E-002   3.7743490740060316E-002   0.0000000000000000     
   4.7735123254106060E-002   4.2167787335900667E-002   0.0000000000000000     
   3.0577682959529628E-002   2.4696654638688371E-002   0.0000000000000000     
   3.3943086137652324E-002   2.8496766987920544E-002   0.0000000000000000     
   3.7226400676795987E-002   3.2515912774072793E-002   0.0000000000000000     
   4.0427626576960654E-002   3.6754091997145119E-002   0.0000000000000000     
   4.3546763838146277E-002   4.1211304657137522E-002   0.0000000000000000     
   2.7487708410740254E-002   2.3728846438207579E-002   0.0000000000000000     
   3.0625165825632270E-002   2.7546141192997694E-002   0.0000000000000000     
   3.3684226013375548E-002   3.1585078035766427E-002   0.0000000000000000     
   3.6664888973970078E-002   3.5845656966513782E-002   0.0000000000000000     
   3.9567154707415855E-002   4.0327877985239756E-002   0.0000000000000000     
   2.4627165866588356E-002   2.2823146973603436E-002   0.0000000000000000     
   2.7532240873058729E-002   2.6671005474864336E-002   0.0000000000000000     
   3.0362120874436599E-002   3.0736018366385287E-002   0.0000000000000000     
   3.3116805870721959E-002   3.5018185648166285E-002   0.0000000000000000     
   3.5796295861914823E-002   3.9517507320207333E-002   0.0000000000000000     
   5.2132232955295205E-002   4.3197326021529155E-002   0.0000000000000000     
   5.5573746379176531E-002   4.7782694445136283E-002   0.0000000000000000     
   5.8918890336530201E-002   5.2579326974946397E-002   0.0000000000000000     
   6.2167664827356223E-002   5.7587223610959498E-002   0.0000000000000000     
   6.5320069851654589E-002   6.2806384353175607E-002   0.0000000000000000     
   4.7735123254106060E-002   4.2167787335900667E-002   0.0000000000000000     
   5.0975446725803904E-002   4.6797900459326809E-002   0.0000000000000000     
   5.4122477232656070E-002   5.1630318200840151E-002   0.0000000000000000     
   5.7176214774662532E-002   5.6665040560440666E-002   0.0000000000000000     
   6.0136659351823302E-002   6.1902067538128359E-002   0.0000000000000000     
   4.3546763838146277E-002   4.1211304657137522E-002   0.0000000000000000     
   4.6580551111755034E-002   4.5876338825291463E-002   0.0000000000000000     
   4.9525727049189061E-002   5.0737982572848388E-002   0.0000000000000000     
   5.2382291650448352E-002   5.5796235899808290E-002   0.0000000000000000     
   5.5150244915532921E-002   6.1051098806171183E-002   0.0000000000000000     
   3.9567154707415855E-002   4.0327877985239756E-002   0.0000000000000000     
   4.2389059537029899E-002   4.5018009543030237E-002   0.0000000000000000     
   4.5128639786129188E-002   4.9902320090971120E-002   0.0000000000000000     
   4.7785895454713706E-002   5.4980809629062419E-002   0.0000000000000000     
   5.0360826542783461E-002   6.0253478157304100E-002   0.0000000000000000     
   3.5796295861914823E-002   3.9517507320207333E-002   0.0000000000000000     
   3.8400972001628529E-002   4.4222912612543130E-002   0.0000000000000000     
   4.0931215443476457E-002   4.9123330755208347E-002   0.0000000000000000     
   4.3387026187458579E-002   5.4218761748203004E-002   0.0000000000000000     
   4.5768404233574922E-002   5.9509205591527073E-002   0.0000000000000000     
   6.5320069851654589E-002   6.2806384353175607E-002   0.0000000000000000     
   6.8375428499753380E-002   6.8212992136038653E-002   0.0000000000000000     
   7.1333063861980656E-002   7.3783229893992622E-002   0.0000000000000000     
   7.4192975938336431E-002   7.9517097627037514E-002   0.0000000000000000     
   7.6955164728820691E-002   8.5414595335173316E-002   0.0000000000000000     
   6.0136659351823302E-002   6.1902067538128359E-002   0.0000000000000000     
   6.3006598690517668E-002   6.7326157541188841E-002   0.0000000000000000     
   6.5788820517124938E-002   7.2922068976907742E-002   0.0000000000000000     
   6.8483324831645126E-002   7.8689801845285040E-002   0.0000000000000000     
   7.1090111634078190E-002   8.4629356146320750E-002   0.0000000000000000     
   5.5150244915532921E-002   6.1051098806171183E-002   0.0000000000000000     
   5.7833921339156102E-002   6.6493270709351904E-002   0.0000000000000000     
   6.0437655416031230E-002   7.2113451026765266E-002   0.0000000000000000     
   6.2961447146158325E-002   7.7911639758411311E-002   0.0000000000000000     
   6.5405296529537360E-002   8.3887836904290011E-002   0.0000000000000000     
   5.0360826542783461E-002   6.0253478157304100E-002   0.0000000000000000     
   5.2857396445668663E-002   6.5714331640527826E-002   0.0000000000000000     
   5.5279568558699518E-002   7.1357376043565221E-002   0.0000000000000000     
   5.7627342881876015E-002   7.7182611366416340E-002   0.0000000000000000     
   5.9900719415198193E-002   8.3190037609081127E-002   0.0000000000000000     
   4.5768404233574922E-002   5.9509205591527073E-002   0.0000000000000000     
   4.8077024010055355E-002   6.4989340334716608E-002   0.0000000000000000     
   5.0314559945129796E-002   7.0653844027307622E-002   0.0000000000000000     
   5.2481012038798243E-002   7.6502716669300114E-002   0.0000000000000000     
   5.4576380291060676E-002   8.2535958260694070E-002   0.0000000000000000     
   7.6955164728820691E-002   8.5414595335173316E-002   0.0000000000000000     
   7.9599499096055737E-002   9.1471314397058856E-002   0.0000000000000000     
   8.2105847902663828E-002   9.7682846191352909E-002   0.0000000000000000     
   8.4474211148644979E-002  0.10404919071805549        0.0000000000000000     
   8.6704588833999188E-002  0.11057034797716661        0.0000000000000000     
   7.1090111634078190E-002   8.4629356146320750E-002   0.0000000000000000     
   7.3579177113197183E-002   9.0727403703248180E-002   0.0000000000000000     
   7.5920517457775089E-002   9.6970616339300597E-002   0.0000000000000000     
   7.8114132667811906E-002  0.10335899405447807        0.0000000000000000     
   8.0160022743307635E-002  0.10989253684878056        0.0000000000000000     
   6.5405296529537360E-002   8.3887836904290011E-002   0.0000000000000000     
   6.7734637253645591E-002   9.0021833313514960E-002   0.0000000000000000     
   6.9914903005960177E-002   9.6293419835199720E-002   0.0000000000000000     
   7.1946093786481174E-002  0.10270259646934431        0.0000000000000000     
   7.3828209595208513E-002  0.10924936321594872        0.0000000000000000     
   5.9900719415198193E-002   8.3190037609081127E-002   0.0000000000000000     
   6.2065879517400918E-002   8.9354603227859208E-002   0.0000000000000000     
   6.4089004547219108E-002   9.5651256679050264E-002   0.0000000000000000     
   6.5970094504652743E-002  0.10207999796265421        0.0000000000000000     
   6.7709149389701850E-002  0.10864082707867112        0.0000000000000000     
   5.4576380291060676E-002   8.2535958260694070E-002   0.0000000000000000     
   5.6572903904463200E-002   8.8725713446280940E-002   0.0000000000000000     
   5.8442822081551861E-002   9.5044126870852175E-002   0.0000000000000000     
   6.0186134822326667E-002  0.10149119853440777        0.0000000000000000     
   6.1802842126787619E-002  0.10806692843694772        0.0000000000000000     
   8.6704588833999188E-002  0.11057034797716661        0.0000000000000000     
   8.8937991340218611E-002  0.11730828227216289        0.0000000000000000     
   9.1315429048795416E-002  0.12432495790652100        0.0000000000000000     
   9.3836901959729602E-002  0.13162037488024089        0.0000000000000000     
   9.6502410073021155E-002  0.13919453319332262        0.0000000000000000     
   8.0160022743307635E-002  0.10989253684878056        0.0000000000000000     
   8.2206926690226320E-002  0.11663031173129024        0.0000000000000000     
   8.4403583514532018E-002  0.12363138571108931        0.0000000000000000     
   8.6749993216224730E-002  0.13089575878817775        0.0000000000000000     
   8.9246155795304455E-002  0.13842343096255560        0.0000000000000000     
   7.3828209595208513E-002  0.10924936321594872        0.0000000000000000     
   7.5708985066709270E-002  0.11599081231223264        0.0000000000000000     
   7.7736154835550422E-002  0.12298403599541577        0.0000000000000000     
   7.9909718901731944E-002  0.13022903426549812        0.0000000000000000     
   8.2229677265253862E-002  0.13772580712247967        0.0000000000000000     
   6.7709149389701850E-002  0.10864082707867112        0.0000000000000000     
   6.9444166469667445E-002  0.11538978401499010        0.0000000000000000     
   7.1313143011850585E-002  0.12238290875950039        0.0000000000000000     
   7.3316079016251257E-002  0.12962020131220195        0.0000000000000000     
   7.5452974482869459E-002  0.13710166167309479        0.0000000000000000     
   6.1802842126787619E-002  0.10806692843694772        0.0000000000000000     
   6.3412470899100862E-002  0.11482722683956263        0.0000000000000000     
   6.5134548043432536E-002  0.12182800400334315        0.0000000000000000     
   6.6969073559782655E-002  0.12906925992828924        0.0000000000000000     
   6.8916047448151191E-002  0.13655099461440093        0.0000000000000000     
   9.6502410073021155E-002  0.13919453319332262        0.0000000000000000     
   9.8977604959349125E-002  0.14678006743124708        0.0000000000000000     
  0.10092813818939247       0.15410961217949518        0.0000000000000000     
  0.10235400976315123       0.16118316743806699        0.0000000000000000     
  0.10325521968062540       0.16800073320696240        0.0000000000000000     
   8.9246155795304455E-002  0.13842343096255560        0.0000000000000000     
   9.1593631297932451E-002  0.14602537918951702        0.0000000000000000     
   9.3493979770270005E-002  0.15351258042435614        0.0000000000000000     
   9.4947201212317131E-002  0.16088503466707293        0.0000000000000000     
   9.5953295624073814E-002  0.16814274191766743        0.0000000000000000     
   8.2229677265253862E-002  0.13772580712247967        0.0000000000000000     
   8.4431187334224805E-002  0.14533679321892065        0.0000000000000000     
   8.6249406516753349E-002  0.15292443120738122        0.0000000000000000     
   8.7684334812839493E-002  0.16048872108786139        0.0000000000000000     
   8.8735972222483264E-002  0.16802966286036114        0.0000000000000000     
   7.5452974482869459E-002  0.13710166167309479        0.0000000000000000     
   7.7490273068226201E-002  0.14471430951945791        0.0000000000000000     
   7.9194418428842478E-002  0.15234516452857044        0.0000000000000000     
   8.0565410564718318E-002  0.15999422670043231        0.0000000000000000     
   8.1603249475853706E-002  0.16766149603504352        0.0000000000000000     
   6.8916047448151191E-002  0.13655099461440093        0.0000000000000000     
   7.0770888499936624E-002  0.14415792809112893        0.0000000000000000     
   7.2329015506537433E-002  0.15177478038792383        0.0000000000000000     
   7.3590428467953620E-002  0.15940155150478574        0.0000000000000000     
   7.4555127384185182E-002  0.16703824144171464        0.0000000000000000     
   0.0000000000000000        0.0000000000000000        0.0000000000000000     
   2.8801561972164021E-003   1.7447499792235745E-003   0.0000000000000000     
   5.8726880609910118E-003   3.8645833804471673E-003   0.0000000000000000     
   8.9775955913238281E-003   6.3595002036707787E-003   0.0000000000000000     
   1.2194878788214854E-002   9.2295004488944093E-003   0.0000000000000000     
   0.0000000000000000        0.0000000000000000        0.0000000000000000     
   2.6102789644126705E-003   1.5888727337390806E-003   0.0000000000000000     
   5.2896352247527945E-003   3.5567035357580074E-003   0.0000000000000000     
   8.0380687810203705E-003   5.9034924060567800E-003   0.0000000000000000     
   1.0855579633215401E-002   8.6292393446353970E-003   0.0000000000000000     
   0.0000000000000000        0.0000000000000000        0.0000000000000000     
   2.3400041684423409E-003   1.4589417903874986E-003   0.0000000000000000     
   4.7200515586594298E-003   3.2998636530207370E-003   0.0000000000000000     
   7.1401421706512661E-003   5.5227655878997157E-003   0.0000000000000000     
   9.6002760044178511E-003   8.1276475950244325E-003   0.0000000000000000     
   0.0000000000000000        0.0000000000000000        0.0000000000000000     
   2.0693318093054141E-003   1.3549571491688281E-003   0.0000000000000000     
   4.1639370627109202E-003   3.0940637322353563E-003   0.0000000000000000     
   6.2838157602165181E-003   5.2173197491995850E-003   0.0000000000000000     
   8.4289679018222062E-003   7.7247252000615142E-003   0.0000000000000000     
   0.0000000000000000        0.0000000000000000        0.0000000000000000     
   1.7982618870018886E-003   1.2769188100830689E-003   0.0000000000000000     
   3.6212917369072622E-003   2.9393037734018659E-003   0.0000000000000000     
   5.4690895497161215E-003   4.9871548899563896E-003   0.0000000000000000     
   7.3416553254284653E-003   7.4204721597466421E-003   0.0000000000000000     
   1.2194878788214854E-002   9.2295004488944093E-003   0.0000000000000000     
   1.5427000003240793E-002   1.2372259823856452E-002   0.0000000000000000     
   1.8576421587978353E-002   1.5685454036295305E-002   0.0000000000000000     
   2.1643143542427544E-002   1.9169083086210965E-002   0.0000000000000000     
   2.4627165866588356E-002   2.2823146973603436E-002   0.0000000000000000     
   1.0855579633215401E-002   8.6292393446353970E-003   0.0000000000000000     
   1.3688848900047781E-002   1.1651411969000184E-002   0.0000000000000000     
   1.6484557700227415E-002   1.4887477896657458E-002   0.0000000000000000     
   1.9242706033754303E-002   1.8337437127607225E-002   0.0000000000000000     
   2.1963293900628442E-002   2.2001289661849482E-002   0.0000000000000000     
   9.6002760044178511E-003   8.1276475950244325E-003   0.0000000000000000     
   1.2076833530533144E-002   1.1046886647766053E-002   0.0000000000000000     
   1.4546195219571102E-002   1.4212859719495730E-002   0.0000000000000000     
   1.7008361071531735E-002   1.7625566810213471E-002   0.0000000000000000     
   1.9463331086415039E-002   2.1285007919919271E-002   0.0000000000000000     
   8.4289679018222062E-003   7.7247252000615142E-003   0.0000000000000000     
   1.0590953894696878E-002   1.0558683860154055E-002   0.0000000000000000     
   1.2761334146009422E-002   1.3661599504810117E-002   0.0000000000000000     
   1.4940108655759845E-002   1.7033472134029698E-002   0.0000000000000000     
   1.7127277423948140E-002   2.0674301747812807E-002   0.0000000000000000     
   7.3416553254284653E-003   7.4204721597466421E-003   0.0000000000000000     
   9.2312099925389874E-003   1.0186803606164195E-002   0.0000000000000000     
   1.1129974479542374E-002   1.3233697252600618E-002   0.0000000000000000     
   1.3037948786438628E-002   1.6561153099055915E-002   0.0000000000000000     
   1.4955132913227750E-002   2.0169171145530088E-002   0.0000000000000000     
   2.4627165866588356E-002   2.2823146973603436E-002   0.0000000000000000     
   2.7532240873058729E-002   2.6671005474864336E-002   0.0000000000000000     