 <VTKFile type="UnstructuredGrid"  version="0.1"   >
 <UnstructuredGrid>
 <Piece  NumberOfPoints="          1600 "  NumberOfCells="         1024 ">
 <Points>
 <DataArray  type="Float64" NumberOfComponents="3"  format="ascii" >
   0.0000000000000000        0.0000000000000000        0.0000000000000000     
   3.1250000000000000E-002   0.0000000000000000        0.0000000000000000     
   6.2500000000000000E-002   0.0000000000000000        0.0000000000000000     
   9.3750000000000000E-002   0.0000000000000000        0.0000000000000000     
  0.12500000000000000        0.0000000000000000        0.0000000000000000     
   0.0000000000000000        3.1250000000000000E-002   0.0000000000000000     
   3.1250000000000000E-002   3.1250000000000000E-002   0.0000000000000000     
   6.2500000000000000E-002   3.1250000000000000E-002   0.0000000000000000     
   9.3750000000000000E-002   3.1250000000000000E-002   0.0000000000000000     
  0.12500000000000000        3.1250000000000000E-002   0.0000000000000000     
   0.0000000000000000        6.2500000000000000E-002   0.0000000000000000     
   3.1250000000000000E-002   6.2500000000000000E-002   0.0000000000000000     
   6.2500000000000000E-002   6.2500000000000000E-002   0.0000000000000000     
   9.3750000000000000E-002   6.2500000000000000E-002   0.0000000000000000     
  0.12500000000000000        6.2500000000000000E-002   0.0000000000000000     
   0.0000000000000000        9.3750000000000000E-002   0.0000000000000000     
   3.1250000000000000E-002   9.3750000000000000E-002   0.0000000000000000     
   6.2500000000000000E-002   9.3750000000000000E-002   0.0000000000000000     
   9.3750000000000000E-002   9.3750000000000000E-002   0.0000000000000000     
  0.12500000000000000        9.3750000000000000E-002   0.0000000000000000     
   0.0000000000000000       0.12500000000000000        0.0000000000000000     
   3.1250000000000000E-002  0.12500000000000000        0.0000000000000000     
   6.2500000000000000E-002  0.12500000000000000        0.0000000000000000     
   9.3750000000000000E-002  0.12500000000000000        0.0000000000000000     
  0.12500000000000000       0.12500000000000000        0.0000000000000000     
  0.12500000000000000        0.0000000000000000        0.0000000000000000     
  0.15625000000000000        0.0000000000000000        0.0000000000000000     
  0.18750000000000000        0.0000000000000000        0.0000000000000000     
  0.21875000000000000        0.0000000000000000        0.0000000000000000     
  0.25000000000000000        0.0000000000000000        0.0000000000000000     
  0.12500000000000000        3.1250000000000000E-002   0.0000000000000000     
  0.15625000000000000        3.1250000000000000E-002   0.0000000000000000     
  0.18750000000000000        3.1250000000000000E-002   0.0000000000000000     
  0.21875000000000000        3.1250000000000000E-002   0.0000000000000000     
  0.25000000000000000        3.1250000000000000E-002   0.0000000000000000     
  0.12500000000000000        6.2500000000000000E-002   0.0000000000000000     
  0.15625000000000000        6.2500000000000000E-002   0.0000000000000000     
  0.18750000000000000        6.2500000000000000E-002   0.0000000000000000     
  0.21875000000000000        6.2500000000000000E-002   0.0000000000000000     
  0.25000000000000000        6.2500000000000000E-002   0.0000000000000000     
  0.12500000000000000        9.3750000000000000E-002   0.0000000000000000     
  0.15625000000000000        9.3750000000000000E-002   0.0000000000000000     
  0.18750000000000000        9.3750000000000000E-002   0.0000000000000000     
  0.21875000000000000        9.3750000000000000E-002   0.0000000000000000     
  0.25000000000000000        9.3750000000000000E-002   0.0000000000000000     
  0.12500000000000000       0.12500000000000000        0.0000000000000000     
  0.15625000000000000       0.12500000000000000        0.0000000000000000     
  0.18750000000000000       0.12500000000000000        0.0000000000000000     
  0.21875000000000000       0.12500000000000000        0.0000000000000000     
  0.25000000000000000       0.12500000000000000        0.0000000000000000     
  0.25000000000000000        0.0000000000000000        0.0000000000000000     
  0.28125000000000000        0.0000000000000000        0.0000000000000000     
  0.31250000000000000        0.0000000000000000        0.0000000000000000     
  0.34375000000000000        0.0000000000000000        0.0000000000000000     
  0.37500000000000000        0.0000000000000000        0.0000000000000000     
  0.25000000000000000        3.1250000000000000E-002   0.0000000000000000     
  0.28125000000000000        3.1250000000000000E-002   0.0000000000000000     
  0.31250000000000000        3.1250000000000000E-002   0.0000000000000000     
  0.34375000000000000        3.1250000000000000E-002   0.0000000000000000     
  0.37500000000000000        3.1250000000000000E-002   0.0000000000000000     
  0.25000000000000000        6.2500000000000000E-002   0.0000000000000000     
  0.28125000000000000        6.2500000000000000E-002   0.0000000000000000     
  0.31250000000000000        6.2500000000000000E-002   0.0000000000000000     
  0.34375000000000000        6.2500000000000000E-002   0.0000000000000000     
  0.37500000000000000        6.2500000000000000E-002   0.0000000000000000     
  0.25000000000000000        9.3750000000000000E-002   0.0000000000000000     
  0.28125000000000000        9.3750000000000000E-002   0.0000000000000000     
  0.31250000000000000        9.3750000000000000E-002   0.0000000000000000     
  0.34375000000000000        9.3750000000000000E-002   0.0000000000000000     
  0.37500000000000000        9.3750000000000000E-002   0.0000000000000000     
  0.25000000000000000       0.12500000000000000        0.0000000000000000     
  0.28125000000000000       0.12500000000000000        0.0000000000000000     
  0.31250000000000000       0.12500000000000000        0.0000000000000000     
  0.34375000000000000       0.12500000000000000        0.0000000000000000     
  0.37500000000000000       0.12500000000000000        0.0000000000000000     
  0.37500000000000000        0.0000000000000000        0.0000000000000000     
  0.40625000000000000        0.0000000000000000        0.0000000000000000     
  0.43750000000000000        0.0000000000000000        0.0000000000000000     
  0.46875000000000000        0.0000000000000000        0.0000000000000000     
  0.50000000000000000        0.0000000000000000        0.0000000000000000     
  0.37500000000000000        3.1250000000000000E-002   0.0000000000000000     
  0.40625000000000000        3.1250000000000000E-002   0.0000000000000000     
  0.43750000000000000        3.1250000000000000E-002   0.0000000000000000     
  0.46875000000000000        3.1250000000000000E-002   0.0000000000000000     
  0.50000000000000000        3.1250000000000000E-002   0.0000000000000000     
  0.37500000000000000        6.2500000000000000E-002   0.0000000000000000     
  0.40625000000000000        6.2500000000000000E-002   0.0000000000000000     
  0.43750000000000000        6.2500000000000000E-002   0.0000000000000000     
  0.46875000000000000        6.2500000000000000E-002   0.0000000000000000     
  0.50000000000000000        6.2500000000000000E-002   0.0000000000000000     
  0.37500000000000000        9.3750000000000000E-002   0.0000000000000000     
  0.40625000000000000        9.3750000000000000E-002   0.0000000000000000     
  0.43750000000000000        9.3750000000000000E-002   0.0000000000000000     
  0.46875000000000000        9.3750000000000000E-002   0.0000000000000000     
  0.50000000000000000        9.3750000000000000E-002   0.0000000000000000     
  0.37500000000000000       0.12500000000000000        0.0000000000000000     
  0.40625000000000000       0.12500000000000000        0.0000000000000000     
  0.43750000000000000       0.12500000000000000        0.0000000000000000     
  0.46875000000000000       0.12500000000000000        0.0000000000000000     
  0.50000000000000000       0.12500000000000000        0.0000000000000000     
  0.50000000000000000        0.0000000000000000        0.0000000000000000     
  0.53125000000000000        0.0000000000000000        0.0000000000000000     
  0.56250000000000000        0.0000000000000000        0.0000000000000000     
  0.59375000000000000        0.0000000000000000        0.0000000000000000     
  0.62500000000000000        0.0000000000000000        0.0000000000000000     
  0.50000000000000000        3.1250000000000000E-002   0.0000000000000000     
  0.53125000000000000        3.1250000000000000E-002   0.0000000000000000     
  0.56250000000000000        3.1250000000000000E-002   0.0000000000000000     
  0.59375000000000000        3.1250000000000000E-002   0.0000000000000000     
  0.62500000000000000        3.1250000000000000E-002   0.0000000000000000     
  0.50000000000000000        6.2500000000000000E-002   0.0000000000000000     
  0.53125000000000000        6.2500000000000000E-002   0.0000000000000000     
  0.56250000000000000        6.2500000000000000E-002   0.0000000000000000     
  0.59375000000000000        6.2500000000000000E-002   0.0000000000000000     
  0.62500000000000000        6.2500000000000000E-002   0.0000000000000000     
  0.50000000000000000        9.3750000000000000E-002   0.0000000000000000     
  0.53125000000000000        9.3750000000000000E-002   0.0000000000000000     
  0.56250000000000000        9.3750000000000000E-002   0.0000000000000000     
  0.59375000000000000        9.3750000000000000E-002   0.0000000000000000     
  0.62500000000000000        9.3750000000000000E-002   0.0000000000000000     
  0.50000000000000000       0.12500000000000000        0.0000000000000000     
  0.53125000000000000       0.12500000000000000        0.0000000000000000     
  0.56250000000000000       0.12500000000000000        0.0000000000000000     
[...]
 <PointData>
 <DataArray  type="Float64" Name="disp" NumberOfComponents="3" format="ascii">
   0.0000000000000000        0.0000000000000000        0.0000000000000000     
   6.0960806014880046E-003   3.7905313081689996E-003   0.0000000000000000     
   1.1666128917334147E-002   7.3240949302916742E-003   0.0000000000000000     
   1.6710144947538429E-002   1.0600690866368024E-002   0.0000000000000000     
   2.1228128692100848E-002   1.3620319116398048E-002   0.0000000000000000     
   0.0000000000000000        0.0000000000000000        0.0000000000000000     
   4.8911649798686436E-003   3.0222895132141995E-003   0.0000000000000000     
   9.5736105234315253E-003   6.0608451049355711E-003   0.0000000000000000     
   1.4047336630688644E-002   9.1156667751641166E-003   0.0000000000000000     
   1.8312343301640003E-002   1.2186754523899833E-002   0.0000000000000000     
   0.0000000000000000        0.0000000000000000        0.0000000000000000     
   3.9535175322336722E-003   2.4252897167907688E-003   0.0000000000000000     
   7.9105128399659073E-003   5.0632391819034218E-003   0.0000000000000000     
   1.1870985923196707E-002   7.9138483953379597E-003   0.0000000000000000     
   1.5834936781926070E-002   1.0977117357094382E-002   0.0000000000000000     
   0.0000000000000000        0.0000000000000000        0.0000000000000000     
   3.2831382585830904E-003   1.9995319188987090E-003   0.0000000000000000     
   6.6768358669372970E-003   4.3312771611952270E-003   0.0000000000000000     
   1.0181092825062618E-002   6.9952357268895536E-003   0.0000000000000000     
   1.3795909132959056E-002   9.9914076159816918E-003   0.0000000000000000     
   0.0000000000000000        0.0000000000000000        0.0000000000000000     
   2.8800271589168982E-003   1.7450161195380191E-003   0.0000000000000000     
   5.8725796043456908E-003   3.8649590428109859E-003   0.0000000000000000     
   8.9776573362863772E-003   6.3598287698189010E-003   0.0000000000000000     
   1.2195260354738960E-002   9.2296253005617630E-003   0.0000000000000000     
   2.1228128692100848E-002   1.3620319116398048E-002   0.0000000000000000     
   2.5433052524851889E-002   1.6613553208491262E-002   0.0000000000000000     
   2.9537888819622028E-002   1.9810966670757185E-002   0.0000000000000000     
   3.3542637576411259E-002   2.3212559503195809E-002   0.0000000000000000     
   3.7447298795219595E-002   2.6818331705807146E-002   0.0000000000000000     
   1.8312343301640003E-002   1.2186754523899833E-002   0.0000000000000000     
   2.2406872101179774E-002   1.5342469279178520E-002   0.0000000000000000     
   2.6369164594202143E-002   1.8651171969035974E-002   0.0000000000000000     
   3.0199220780707109E-002   2.2112862593472195E-002   0.0000000000000000     
   3.3897040660694669E-002   2.5727541152487179E-002   0.0000000000000000     
   1.5834936781926070E-002   1.0977117357094382E-002   0.0000000000000000     
   1.9730577500216194E-002   1.4211905672672867E-002   0.0000000000000000     
   2.3486120162129285E-002   1.7577072947573592E-002   0.0000000000000000     
   2.7101564767665339E-002   2.1072619181796561E-002   0.0000000000000000     
   3.0576911316824350E-002   2.4698544375341774E-002   0.0000000000000000     
   1.3795909132959056E-002   9.9914076159816918E-003   0.0000000000000000     
   1.7404168721961152E-002   1.3221862388974302E-002   0.0000000000000000     
   2.0888755523403451E-002   1.6588669606370045E-002   0.0000000000000000     
   2.4249669537285946E-002   2.0091829268168920E-002   0.0000000000000000     
   2.7486910763608645E-002   2.3731341374370937E-002   0.0000000000000000     
   1.2195260354738960E-002   9.2296253005617630E-003   0.0000000000000000     
   1.5427645766414644E-002   1.2372339428082822E-002   0.0000000000000000     
   1.8577070678024634E-002   1.5685961945425323E-002   0.0000000000000000     
   2.1643535089568938E-002   1.9170492852589271E-002   0.0000000000000000     
   2.4627039001047551E-002   2.2825932149574665E-002   0.0000000000000000     
   3.7447298795219595E-002   2.6818331705807146E-002   0.0000000000000000     
   4.1255595282808449E-002   3.0623830200835575E-002   0.0000000000000000     
   4.4971249845939240E-002   3.4624601910525479E-002   0.0000000000000000     
   4.8594262484611968E-002   3.8820646834876869E-002   0.0000000000000000     
   5.2124633198826639E-002   4.3211964973889738E-002   0.0000000000000000     
   3.3897040660694669E-002   2.5727541152487179E-002   0.0000000000000000     
   3.7485454995200784E-002   2.9524190869777894E-002   0.0000000000000000     
   4.0987294545261441E-002   3.3531794969041302E-002   0.0000000000000000     
   4.4402559310876617E-002   3.7750353450277413E-002   0.0000000000000000     
   4.7731249292046342E-002   4.2179866313486206E-002   0.0000000000000000     
   3.0576911316824350E-002   2.4698544375341774E-002   0.0000000000000000     
   3.3941458109299605E-002   2.8499480272673353E-002   0.0000000000000000     
   3.7224503444784389E-002   3.2520058618255430E-002   0.0000000000000000     
   4.0426047323278709E-002   3.6760279412088009E-002   0.0000000000000000     
   4.3546089744782551E-002   4.1220142654171080E-002   0.0000000000000000     
   2.7486910763608645E-002   2.3731341374370937E-002   0.0000000000000000     
   3.0623604625104908E-002   2.7549698409521966E-002   0.0000000000000000     
   3.3682876544508106E-002   3.1589392858167878E-002   0.0000000000000000     
   3.6664726521818236E-002   3.5850424720308673E-002   0.0000000000000000     
   3.9569154557035281E-002   4.0332793995944367E-002   0.0000000000000000     
   2.4627039001047551E-002   2.2825932149574665E-002   0.0000000000000000     
   2.7531894542616685E-002   2.6674845280323711E-002   0.0000000000000000     
   3.0362413844432563E-002   3.0739797688778624E-002   0.0000000000000000     
   3.3118596906495178E-002   3.5020789374939403E-002   0.0000000000000000     
   3.5800443728804539E-002   3.9517820338806048E-002   0.0000000000000000     
   5.2124633198826639E-002   4.3211964973889738E-002   0.0000000000000000     
   5.5558918482018028E-002   4.7801789972052977E-002   0.0000000000000000     
   5.8893674827620895E-002   5.2593355473855491E-002   0.0000000000000000     
   6.2128902235635247E-002   5.7586661479297287E-002   0.0000000000000000     
   6.5264600706061091E-002   6.2781707988378344E-002   0.0000000000000000     
   4.7731249292046342E-002   4.2179866313486206E-002   0.0000000000000000     
   5.0969711970668442E-002   4.6812347807013918E-002   0.0000000000000000     
   5.4114294828640795E-002   5.1639812179206740E-002   0.0000000000000000     
   5.7164997865963400E-002   5.6662259430064692E-002   0.0000000000000000     
   6.0121821082636279E-002   6.1879689559587753E-002   0.0000000000000000     
   4.3546089744782551E-002   4.1220142654171080E-002   0.0000000000000000     
   4.6581571020983509E-002   4.5885735816379045E-002   0.0000000000000000     
   4.9529431463569182E-002   5.0743146370586280E-002   0.0000000000000000     
   5.2389671072539570E-002   5.5792374316792778E-002   0.0000000000000000     
   5.5162289847894667E-002   6.1033419654998561E-002   0.0000000000000000     
   3.9569154557035281E-002   4.0332793995944367E-002   0.0000000000000000     
   4.2394495632963242E-002   4.5021954000148363E-002   0.0000000000000000     
   4.5139084732406055E-002   4.9903358047994097E-002   0.0000000000000000     
   4.7802921855363750E-002   5.4977006139481560E-002   0.0000000000000000     
   5.0386007001836305E-002   6.0242898274610754E-002   0.0000000000000000     
   3.5800443728804539E-002   3.9517820338806048E-002   0.0000000000000000     
   3.8408485806607627E-002   4.4221002358321874E-002   0.0000000000000000     
   4.0943254635151423E-002   4.9120447211430211E-002   0.0000000000000000     
   4.3404750214435933E-002   5.4216154898131023E-002   0.0000000000000000     
   4.5792972544461158E-002   5.9508125418424339E-002   0.0000000000000000     
   6.5264600706061091E-002   6.2781707988378344E-002   0.0000000000000000     
   6.8305170770750975E-002   6.8168943047206138E-002   0.0000000000000000     
   7.1255012961557451E-002   7.3738814701888075E-002   0.0000000000000000     
   7.4114127278480532E-002   7.9491322952424184E-002   0.0000000000000000     
   7.6882513721520204E-002   8.5426467798814465E-002   0.0000000000000000     
   6.0121821082636279E-002   6.1879689559587753E-002   0.0000000000000000     
   6.2987727503405297E-002   6.7287370178445341E-002   0.0000000000000000     
   6.5765680153016426E-002   7.2880568897306833E-002   0.0000000000000000     
   6.8455679031469638E-002   7.8659285716172214E-002   0.0000000000000000     
   7.1057724138764947E-002   8.4623520635041527E-002   0.0000000000000000     
   5.5162289847894667E-002   6.1033419654998561E-002   0.0000000000000000     
   5.7848879590147215E-002   6.6463691018082929E-002   0.0000000000000000     
   6.0451032099809898E-002   7.2080597038925193E-002   0.0000000000000000     
   6.2968747376882753E-002   7.7884137717525406E-002   0.0000000000000000     
   6.5402025421365764E-002   8.3874313053883487E-002   0.0000000000000000     
   5.0386007001836305E-002   6.0242898274610754E-002   0.0000000000000000     
   5.2888627030976694E-002   6.5697905566118903E-002   0.0000000000000000     
   5.5311068801937868E-002   7.1338899126743224E-002   0.0000000000000000     
   5.7653332314719863E-002   7.7165878956483691E-002   0.0000000000000000     
   5.9915417569322650E-002   8.3178845055340372E-002   0.0000000000000000     
   4.5792972544461158E-002   5.9508125418424339E-002   0.0000000000000000     
   4.8106969825893749E-002   6.4990013822553247E-002   0.0000000000000000     
   5.0345790259400350E-002   7.0655475160760858E-002   0.0000000000000000     
   5.2509433844980975E-002   7.6504509433047152E-002   0.0000000000000000     
   5.4597900582635611E-002   8.2537116639412142E-002   0.0000000000000000     
   7.6882513721520204E-002   8.5426467798814465E-002   0.0000000000000000     
   7.9556770516637135E-002   9.1529265684749714E-002   0.0000000000000000     
   8.2133495889792019E-002   9.7784733053920714E-002   0.0000000000000000     
   8.4612689840984787E-002  0.10419286990632752        0.0000000000000000     
   8.6994352370215508E-002  0.11075367624197006        0.0000000000000000     
   7.1057724138764947E-002   8.4623520635041527E-002   0.0000000000000000     
   7.3570618478531039E-002   9.0756272424419165E-002   0.0000000000000000     
   7.5993165054396600E-002   9.7040539854809565E-002   0.0000000000000000     
   7.8325363866361630E-002  0.10347632292621270        0.0000000000000000     
   8.0567214914426158E-002  0.11006362163862859        0.0000000000000000     
   6.5402025421365764E-002   8.3874313053883487E-002   0.0000000000000000     
   6.7751296580142908E-002   9.0033579776351486E-002   0.0000000000000000     
   7.0016991200098119E-002   9.6344394613281342E-002   0.0000000000000000     
   7.2199109281231452E-002  0.10280675756467306        0.0000000000000000     
   7.4297650823542880E-002  0.10942066863052666        0.0000000000000000     
   5.9915417569322650E-002   8.3178845055340372E-002   0.0000000000000000     
   6.2098804821472731E-002   8.9361187740546660E-002   0.0000000000000000     
   6.4204974326896605E-002   9.5696297329336058E-002   0.0000000000000000     
   6.6233926085594239E-002  0.10218417382170859        0.0000000000000000     
   6.8185660097565659E-002  0.10882481721766422        0.0000000000000000     
   5.4597900582635611E-002   8.2537116639412142E-002   0.0000000000000000     
   5.6613143202520533E-002   8.8739096317004704E-002   0.0000000000000000     
   5.8557114434791981E-002   9.5096248002973754E-002   0.0000000000000000     
   6.0429814279449982E-002  0.10160857169731928        0.0000000000000000     
   6.2231242736494510E-002  0.10827606740004131        0.0000000000000000     
   8.6994352370215508E-002  0.11075367624197006        0.0000000000000000     
   8.9275633412129435E-002  0.11746153107190344        0.0000000000000000     
   9.1453682901371874E-002  0.12431081340718264        0.0000000000000000     
   9.3528500837942813E-002  0.13130152324780767        0.0000000000000000     
   9.5500087221842264E-002  0.13843366059377857        0.0000000000000000     
   8.0567214914426158E-002  0.11006362163862859        0.0000000000000000     
   8.2717015603428423E-002  0.11679736916934705        0.0000000000000000     
   8.4773063338206792E-002  0.12367249869565780        0.0000000000000000     
   8.6735358118761222E-002  0.13068901021756088        0.0000000000000000     
   8.8603899945091713E-002  0.13784690373505629        0.0000000000000000     
   7.4297650823542880E-002  0.10942066863052666        0.0000000000000000     
   7.6311537448025671E-002  0.11618057332593151        0.0000000000000000     
   7.8239690775673151E-002  0.12308091716597702        0.0000000000000000     
   8.0082110806485307E-002  0.13012170015066318        0.0000000000000000     
   8.1838797540462166E-002  0.13730292227999000        0.0000000000000000     
   6.8185660097565659E-002  0.10882481721766422        0.0000000000000000     
   7.0059198945921136E-002  0.11561114354165682        0.0000000000000000     
   7.1853565213770967E-002  0.12253606881814029        0.0000000000000000     
   7.3568758901115125E-002  0.12959959304711455        0.0000000000000000     
   7.5204780007953637E-002  0.13680171622857967        0.0000000000000000     
   6.2231242736494510E-002  0.10827606740004131        0.0000000000000000     
   6.3960000097114833E-002  0.11508907981652301        0.0000000000000000     
   6.5614686652500212E-002  0.12203795365214759        0.0000000000000000     
   6.7195302402650633E-002  0.12912268890691503        0.0000000000000000     
   6.8701847347566125E-002  0.13634328558082540        0.0000000000000000     
   9.5500087221842264E-002  0.13843366059377857        0.0000000000000000     
   9.7349850504298618E-002  0.14568043261008234        0.0000000000000000     
   9.9059199136540266E-002  0.15301504646170611        0.0000000000000000     
  0.10062813311856721       0.16043750214864982        0.0000000000000000     
  0.10205665245037944       0.16794779967091350        0.0000000000000000     
   8.8603899945091713E-002  0.13784690373505629        0.0000000000000000     
   9.0376941108976067E-002  0.14512099981698587        0.0000000000000000     
   9.2052733902192083E-002  0.15248611903219156        0.0000000000000000     
   9.3631278324739761E-002  0.15994226138067330        0.0000000000000000     
   9.5112574376619130E-002  0.16748942686243107        0.0000000000000000     
   8.1838797540462166E-002  0.13730292227999000        0.0000000000000000     
   8.3518356599470767E-002  0.14460186227558824        0.0000000000000000     
   8.5129393605378231E-002  0.15199579885908876        0.0000000000000000     
   8.6671908558184560E-002  0.15948473203049152        0.0000000000000000     
   8.8145901457889739E-002  0.16706866178979662        0.0000000000000000     
   7.5204780007953637E-002  0.13680171622857967        0.0000000000000000     
   7.6774096975782719E-002  0.14412301998588950        0.0000000000000000     
   7.8289178246098712E-002  0.15154408594239782        0.0000000000000000     
   7.9750023818901575E-002  0.15906491409810466        0.0000000000000000     
   8.1156633694191266E-002  0.16668550445301003        0.0000000000000000     
   6.8701847347566125E-002  0.13634328558082540        0.0000000000000000     
   7.0144162237911964E-002  0.14368447294788958        0.0000000000000000     
   7.1532087824353524E-002  0.15113098028211869        0.0000000000000000     
   7.2865624106890750E-002  0.15868280758351261        0.0000000000000000     
   7.4144771085523711E-002  0.16633995485207143        0.0000000000000000     
   0.0000000000000000        0.0000000000000000        0.0000000000000000     
   2.8800271589168982E-003   1.7450161195380191E-003   0.0000000000000000     
   5.8725796043456908E-003   3.8649590428109859E-003   0.0000000000000000     
   8.9776573362863772E-003   6.3598287698189010E-003   0.0000000000000000     
   1.2195260354738960E-002   9.2296253005617630E-003   0.0000000000000000     
   0.0000000000000000        0.0000000000000000        0.0000000000000000     
   2.6103175408938627E-003   1.5890861242619559E-003   0.0000000000000000     
   5.2897262614037413E-003   3.5569779680768741E-003   0.0000000000000000     
   8.0382261615296342E-003   5.9036755314447542E-003   0.0000000000000000     
   1.0855817241271543E-002   8.6291788143655970E-003   0.0000000000000000     
   0.0000000000000000        0.0000000000000000        0.0000000000000000     
   2.3401427121727491E-003   1.4590857386237762E-003   0.0000000000000000     
   4.7202580473240940E-003   3.3000270783190679E-003   0.0000000000000000     
   7.1403460054540345E-003   5.5228240190858752E-003   0.0000000000000000     
   9.6004065865625699E-003   8.1274765609241975E-003   0.0000000000000000     
   0.0000000000000000        0.0000000000000000        0.0000000000000000     
   2.0695026727535573E-003   1.3550149626234801E-003   0.0000000000000000     
   4.1641749621067516E-003   3.0941063735375673E-003   0.0000000000000000     
   6.2840168680595790E-003   5.2172742327422604E-003   0.0000000000000000     
   8.4290283906120408E-003   7.7245185402375627E-003   0.0000000000000000     
   0.0000000000000000        0.0000000000000000        0.0000000000000000     
   1.7983974226362890E-003   1.2768737962610673E-003   0.0000000000000000     
   3.6214770057517113E-003   2.9392158537323719E-003   0.0000000000000000     
   5.4692387493462677E-003   4.9870261724139133E-003   0.0000000000000000     
   7.3416826534199566E-003   7.4203047523056925E-003   0.0000000000000000     
   1.2195260354738960E-002   9.2296253005617630E-003   0.0000000000000000     
   1.5427645766414644E-002   1.2372339428082822E-002   0.0000000000000000     
   1.8577070678024634E-002   1.5685961945425323E-002   0.0000000000000000     
   2.1643535089568938E-002   1.9170492852589271E-002   0.0000000000000000     
   2.4627039001047551E-002   2.2825932149574665E-002   0.0000000000000000     
   1.0855817241271543E-002   8.6291788143655970E-003   0.0000000000000000     
   1.3689183549454588E-002   1.1651285852266144E-002   0.0000000000000000     
   1.6485009134903889E-002   1.4887794680573132E-002   0.0000000000000000     
   1.9243293997619440E-002   1.8338705299286565E-002   0.0000000000000000     
   2.1964038137601252E-002   2.2004017708406442E-002   0.0000000000000000     
   9.6004065865625699E-003   8.1274765609241975E-003   0.0000000000000000     
   1.2076956986958905E-002   1.1046650723791979E-002   0.0000000000000000     
   1.4546514402952248E-002   1.4213012527647166E-002   0.0000000000000000     
   1.7009078834542592E-002   1.7626561972489754E-002   0.0000000000000000     
   1.9464650281729941E-002   2.1287299058319747E-002   0.0000000000000000     
   8.4290283906120408E-003   7.7245185402375627E-003   0.0000000000000000     
   1.0590966078927601E-002   1.0558434042660332E-002   0.0000000000000000     
   1.2761586482169714E-002   1.3661615486647424E-002   0.0000000000000000     
   1.4940889600338386E-002   1.7034062872198844E-002   0.0000000000000000     
   1.7128875433433614E-002   2.0675776199314589E-002   0.0000000000000000     
   7.3416826534199566E-003   7.4203047523056925E-003   0.0000000000000000     
   9.2312108253606688E-003   1.0186635808871197E-002   0.0000000000000000     
   1.1130225372556288E-002   1.3233603557573909E-002   0.0000000000000000     
   1.3038726295006822E-002   1.6561207998413832E-002   0.0000000000000000     
   1.4956713592712265E-002   2.0169449131390970E-002   0.0000000000000000     
   2.4627039001047551E-002   2.2825932149574665E-002   0.0000000000000000     
   2.7531894542616685E-002   2.6674845280323711E-002   0.0000000000000000     