 <VTKFile type="UnstructuredGrid"  version="0.1"   >
 <UnstructuredGrid>
 <Piece  NumberOfPoints="          1600 "  NumberOfCells="         1024 ">
 <Points>
 <DataArray  type="Float64" NumberOfComponents="3"  format="ascii" >
   0.0000000000000000        0.0000000000000000        0.0000000000000000     
   3.1250000000000000E-002   0.0000000000000000        0.0000000000000000     
   6.2500000000000000E-002   0.0000000000000000        0.0000000000000000     
   9.3750000000000000E-002   0.0000000000000000        0.0000000000000000     
  0.12500000000000000        0.0000000000000000        0.0000000000000000     
   0.0000000000000000        3.1250000000000000E-002   0.0000000000000000     
   3.1250000000000000E-002   3.1250000000000000E-002   0.0000000000000000     
   6.2500000000000000E-002   3.1250000000000000E-002   0.0000000000000000     
   9.3750000000000000E-002   3.1250000000000000E-002   0.0000000000000000     
  0.12500000000000000        3.1250000000000000E-002   0.0000000000000000     
   0.0000000000000000        6.2500000000000000E-002   0.0000000000000000     
   3.1250000000000000E-002   6.2500000000000000E-002   0.0000000000000000     
   6.2500000000000000E-002   6.2500000000000000E-002   0.0000000000000000     
   9.3750000000000000E-002   6.2500000000000000E-002   0.0000000000000000     
  0.12500000000000000        6.2500000000000000E-002   0.0000000000000000     
   0.0000000000000000        9.3750000000000000E-002   0.0000000000000000     
   3.1250000000000000E-002   9.3750000000000000E-002   0.0000000000000000     
   6.2500000000000000E-002   9.3750000000000000E-002   0.0000000000000000     
   9.3750000000000000E-002   9.3750000000000000E-002   0.0000000000000000     
  0.12500000000000000        9.3750000000000000E-002   0.0000000000000000     
   0.0000000000000000       0.12500000000000000        0.0000000000000000     
   3.1250000000000000E-002  0.12500000000000000        0.0000000000000000     
   6.2500000000000000E-002  0.12500000000000000        0.0000000000000000     
   9.3750000000000000E-002  0.12500000000000000        0.0000000000000000     
  0.12500000000000000       0.12500000000000000        0.0000000000000000     
  0.12500000000000000        0.0000000000000000        0.0000000000000000     
  0.15625000000000000        0.0000000000000000        0.0000000000000000     
  0.18750000000000000        0.0000000000000000        0.0000000000000000     
  0.21875000000000000        0.0000000000000000        0.0000000000000000     
  0.25000000000000000        0.0000000000000000        0.0000000000000000     
  0.12500000000000000        3.1250000000000000E-002   0.0000000000000000     
  0.15625000000000000        3.1250000000000000E-002   0.0000000000000000     
  0.18750000000000000        3.1250000000000000E-002   0.0000000000000000     
  0.21875000000000000        3.1250000000000000E-002   0.0000000000000000     
  0.25000000000000000        3.1250000000000000E-002   0.0000000000000000     
  0.12500000000000000        6.2500000000000000E-002   0.0000000000000000     
  0.15625000000000000        6.2500000000000000E-002   0.0000000000000000     
  0.18750000000000000        6.2500000000000000E-002   0.0000000000000000     
  0.21875000000000000        6.2500000000000000E-002   0.0000000000000000     
  0.25000000000000000        6.2500000000000000E-002   0.0000000000000000     
  0.12500000000000000        9.3750000000000000E-002   0.0000000000000000     
  0.15625000000000000        9.3750000000000000E-002   0.0000000000000000     
  0.18750000000000000        9.3750000000000000E-002   0.0000000000000000     
  0.21875000000000000        9.3750000000000000E-002   0.0000000000000000     
  0.25000000000000000        9.3750000000000000E-002   0.0000000000000000     
  0.12500000000000000       0.12500000000000000        0.0000000000000000     
  0.15625000000000000       0.12500000000000000        0.0000000000000000     
  0.18750000000000000       0.12500000000000000        0.0000000000000000     
  0.21875000000000000       0.12500000000000000        0.0000000000000000     
  0.25000000000000000       0.12500000000000000        0.0000000000000000     
  0.25000000000000000        0.0000000000000000        0.0000000000000000     
  0.28125000000000000        0.0000000000000000        0.0000000000000000     
  0.31250000000000000        0.0000000000000000        0.0000000000000000     
  0.34375000000000000        0.0000000000000000        0.0000000000000000     
  0.37500000000000000        0.0000000000000000        0.0000000000000000     
  0.25000000000000000        3.1250000000000000E-002   0.0000000000000000     
  0.28125000000000000        3.1250000000000000E-002   0.0000000000000000     
  0.31250000000000000        3.1250000000000000E-002   0.0000000000000000     
  0.34375000000000000        3.1250000000000000E-002   0.0000000000000000     
  0.37500000000000000        3.1250000000000000E-002   0.0000000000000000     
  0.25000000000000000        6.2500000000000000E-002   0.0000000000000000     
  0.28125000000000000        6.2500000000000000E-002   0.0000000000000000     
  0.31250000000000000        6.2500000000000000E-002   0.0000000000000000     
  0.34375000000000000        6.2500000000000000E-002   0.0000000000000000     
  0.37500000000000000        6.2500000000000000E-002   0.0000000000000000     
  0.25000000000000000        9.3750000000000000E-002   0.0000000000000000     
  0.28125000000000000        9.3750000000000000E-002   0.0000000000000000     
  0.31250000000000000        9.3750000000000000E-002   0.0000000000000000     
  0.34375000000000000        9.3750000000000000E-002   0.0000000000000000     
  0.37500000000000000        9.3750000000000000E-002   0.0000000000000000     
  0.25000000000000000       0.12500000000000000        0.0000000000000000     
  0.28125000000000000       0.12500000000000000        0.0000000000000000     
  0.31250000000000000       0.12500000000000000        0.0000000000000000     
  0.34375000000000000       0.12500000000000000        0.0000000000000000     
  0.37500000000000000       0.12500000000000000        0.0000000000000000     
  0.37500000000000000        0.0000000000000000        0.0000000000000000     
  0.40625000000000000        0.0000000000000000        0.0000000000000000     
  0.43750000000000000        0.0000000000000000        0.0000000000000000     
  0.46875000000000000        0.0000000000000000        0.0000000000000000     
  0.50000000000000000        0.0000000000000000        0.0000000000000000     
  0.37500000000000000        3.1250000000000000E-002   0.0000000000000000     
  0.40625000000000000        3.1250000000000000E-002   0.0000000000000000     
  0.43750000000000000        3.1250000000000000E-002   0.0000000000000000     
  0.46875000000000000        3.1250000000000000E-002   0.0000000000000000     
  0.50000000000000000        3.1250000000000000E-002   0.0000000000000000     
  0.37500000000000000        6.2500000000000000E-002   0.0000000000000000     
  0.40625000000000000        6.2500000000000000E-002   0.0000000000000000     
  0.43750000000000000        6.2500000000000000E-002   0.0000000000000000     
  0.46875000000000000        6.2500000000000000E-002   0.0000000000000000     
  0.50000000000000000        6.2500000000000000E-002   0.0000000000000000     
  0.37500000000000000        9.3750000000000000E-002   0.0000000000000000     
  0.40625000000000000        9.3750000000000000E-002   0.0000000000000000     
  0.43750000000000000        9.3750000000000000E-002   0.0000000000000000     
  0.46875000000000000        9.3750000000000000E-002   0.0000000000000000     
  0.50000000000000000        9.3750000000000000E-002   0.0000000000000000     
  0.37500000000000000       0.12500000000000000        0.0000000000000000     
  0.40625000000000000       0.12500000000000000        0.0000000000000000     
  0.43750000000000000       0.12500000000000000        0.0000000000000000     
  0.46875000000000000       0.12500000000000000        0.0000000000000000     
  0.50000000000000000       0.12500000000000000        0.0000000000000000     
  0.50000000000000000        0.0000000000000000        0.0000000000000000     
  0.53125000000000000        0.0000000000000000        0.0000000000000000     
  0.56250000000000000        0.0000000000000000        0.0000000000000000     
  0.59375000000000000        0.0000000000000000        0.0000000000000000     
  0.62500000000000000        0.0000000000000000        0.0000000000000000     
  0.50000000000000000        3.1250000000000000E-002   0.0000000000000000     
  0.53125000000000000        3.1250000000000000E-002   0.0000000000000000     
  0.56250000000000000        3.1250000000000000E-002   0.0000000000000000     
  0.59375000000000000        3.1250000000000000E-002   0.0000000000000000     
  0.62500000000000000        3.1250000000000000E-002   0.0000000000000000     
  0.50000000000000000        6.2500000000000000E-002   0.0000000000000000     
  0.53125000000000000        6.2500000000000000E-002   0.0000000000000000     
  0.56250000000000000        6.2500000000000000E-002   0.0000000000000000     
  0.59375000000000000        6.2500000000000000E-002   0.0000000000000000     
  0.62500000000000000        6.2500000000000000E-002   0.0000000000000000     
  0.50000000000000000        9.3750000000000000E-002   0.0000000000000000     
  0.53125000000000000        9.3750000000000000E-002   0.0000000000000000     
  0.56250000000000000        9.3750000000000000E-002   0.0000000000000000     
  0.59375000000000000        9.3750000000000000E-002   0.0000000000000000     
  0.62500000000000000        9.3750000000000000E-002   0.0000000000000000     
  0.50000000000000000       0.12500000000000000        0.0000000000000000     
  0.53125000000000000       0.12500000000000000        0.0000000000000000     
  0.56250000000000000       0.12500000000000000        0.0000000000000000     
[...]
 <PointData>
 <DataArray  type="Float64" Name="disp" NumberOfComponents="3" format="ascii">
   0.0000000000000000        0.0000000000000000        0.0000000000000000     
   6.0959871691408018E-003   3.7906342456623418E-003   0.0000000000000000     
   1.1665957469581392E-002   7.3242023348088787E-003   0.0000000000000000     
   1.6709910901321772E-002   1.0600704267439608E-002   0.0000000000000000     
   2.1227847464361939E-002   1.3620140043554531E-002   0.0000000000000000     
   0.0000000000000000        0.0000000000000000        0.0000000000000000     
   4.8911137838395114E-003   3.0223516455297464E-003   0.0000000000000000     
   9.5735067666746863E-003   6.0609131604284130E-003   0.0000000000000000     
   1.4047178948505525E-002   9.1156845446959990E-003   0.0000000000000000     
   1.8312130329332023E-002   1.2186665798332507E-002   0.0000000000000000     
   0.0000000000000000        0.0000000000000000        0.0000000000000000     
   3.9534999328380690E-003   2.4253207020613781E-003   0.0000000000000000     
   7.9104636643661762E-003   5.0632797063043609E-003   0.0000000000000000     
   1.1870891194584326E-002   7.9138770127289461E-003   0.0000000000000000     
   1.5834782523492512E-002   1.0977112621335139E-002   0.0000000000000000     
   0.0000000000000000        0.0000000000000000        0.0000000000000000     
   3.2831456161364725E-003   1.9995414152572384E-003   0.0000000000000000     
   6.6768281626558654E-003   4.3313019724367215E-003   0.0000000000000000     
   1.0181047639558178E-002   6.9952816715384506E-003   0.0000000000000000     
   1.3795804046843409E-002   9.9914805125624236E-003   0.0000000000000000     
   0.0000000000000000        0.0000000000000000        0.0000000000000000     
   2.8800508337347226E-003   1.7450137851173272E-003   0.0000000000000000     
   5.8726002615437489E-003   3.8649799588254966E-003   0.0000000000000000     
   8.9776482834270799E-003   6.3598985211245074E-003   0.0000000000000000     
   1.2195194899384715E-002   9.2297694720143621E-003   0.0000000000000000     
   2.1227847464361939E-002   1.3620140043554531E-002   0.0000000000000000     
   2.5432691742154939E-002   1.6613189143204199E-002   0.0000000000000000     
   2.9537368318153803E-002   1.9810531046439168E-002   0.0000000000000000     
   3.3541877192358550E-002   2.3212165753259430E-002   0.0000000000000000     
   3.7446218364769149E-002   2.6818093263664994E-002   0.0000000000000000     
   1.8312130329332023E-002   1.2186665798332507E-002   0.0000000000000000     
   2.2406576081561345E-002   1.5342265766286577E-002   0.0000000000000000     
   2.6368731377600672E-002   1.8650893293506849E-002   0.0000000000000000     
   3.0198596217450000E-002   2.2112548379993317E-002   0.0000000000000000     
   3.3896170601109318E-002   2.5727231025745992E-002   0.0000000000000000     
   1.5834782523492512E-002   1.0977112621335139E-002   0.0000000000000000     
   1.9730343613670064E-002   1.4211844751050728E-002   0.0000000000000000     
   2.3485780427696321E-002   1.7576931620803517E-002   0.0000000000000000     
   2.7101092965571269E-002   2.1072373230593505E-002   0.0000000000000000     
   3.0576281227294919E-002   2.4698169580420683E-002   0.0000000000000000     
   1.3795804046843409E-002   9.9914805125624236E-003   0.0000000000000000     
   1.7403994338481089E-002   1.3221926097496658E-002   0.0000000000000000     
   2.0888515468440734E-002   1.6588646028329178E-002   0.0000000000000000     
   2.4249367436722354E-002   2.0091640305059975E-002   0.0000000000000000     
   2.7486550243325948E-002   2.3730908927689056E-002   0.0000000000000000     
   1.2195194899384715E-002   9.2297694720143621E-003   0.0000000000000000     
   1.5427528255994411E-002   1.2372509805624368E-002   0.0000000000000000     
   1.8576936499833926E-002   1.5686036516083829E-002   0.0000000000000000     
   2.1643419630903257E-002   1.9170349603392752E-002   0.0000000000000000     
   2.4626977649202408E-002   2.2825449067551129E-002   0.0000000000000000     
   3.7446218364769149E-002   2.6818093263664994E-002   0.0000000000000000     
   4.1254375931276344E-002   3.0623449130182182E-002   0.0000000000000000     
   4.4970333987770852E-002   3.4623368905337341E-002   0.0000000000000000     
   4.8594092534252661E-002   3.8817852589130467E-002   0.0000000000000000     
   5.2125651570721770E-002   4.3206900181561550E-002   0.0000000000000000     
   3.3896170601109318E-002   2.5727231025745992E-002   0.0000000000000000     
   3.7484448175448194E-002   2.9523627164709514E-002   0.0000000000000000     
   4.0986422587336174E-002   3.3530422730828541E-002   0.0000000000000000     
   4.4402093836773265E-002   3.7747617724103066E-002   0.0000000000000000     
   4.7731461923759461E-002   4.2175212144533084E-002   0.0000000000000000     
   3.0576281227294919E-002   2.4698169580420683E-002   0.0000000000000000     
   3.3940708317646034E-002   2.8498793666372930E-002   0.0000000000000000     
   3.7223737341403433E-002   3.2518718484538127E-002   0.0000000000000000     
   4.0425368298567070E-002   3.6757944034916244E-002   0.0000000000000000     
   4.3545601189136973E-002   4.1216470317507303E-002   0.0000000000000000     
   2.7486550243325948E-002   2.3730908927689056E-002   0.0000000000000000     
   3.0623156357869899E-002   2.7548948635172429E-002   0.0000000000000000     
   3.3682278249972622E-002   3.1588256166466072E-002   0.0000000000000000     
   3.6663915919634082E-002   3.5848831521570021E-002   0.0000000000000000     
   3.9568069366854315E-002   4.0330674700484223E-002   0.0000000000000000     
   2.4626977649202408E-002   2.2825449067551129E-002   0.0000000000000000     
   2.7531792296119774E-002   2.6674092071108005E-002   0.0000000000000000     
   3.0362045313043741E-002   3.0739035776612411E-002   0.0000000000000000     
   3.3117736699974323E-002   3.5020280184064355E-002   0.0000000000000000     
   3.5798866456911500E-002   3.9517825293463822E-002   0.0000000000000000     
   5.2125651570721770E-002   4.3206900181561550E-002   0.0000000000000000     
   5.5563455592275685E-002   4.7795070522136010E-002   0.0000000000000000     
   5.8905949094011881E-002   5.2586922450359230E-002   0.0000000000000000     
   6.2153132075930359E-002   5.7582455966231218E-002   0.0000000000000000     
   6.5305004538031133E-002   6.2781671069751993E-002   0.0000000000000000     
   4.7731461923759461E-002   4.2175212144533084E-002   0.0000000000000000     
   5.0970670672388599E-002   4.6806601891436539E-002   0.0000000000000000     
   5.4115863906754498E-002   5.1635182864131365E-002   0.0000000000000000     
   5.7167041626857172E-002   5.6660955062617577E-002   0.0000000000000000     
   6.0124203832696607E-002   6.1883918486895152E-002   0.0000000000000000     
   4.3545601189136973E-002   4.1216470317507303E-002   0.0000000000000000     
   4.6580041698105305E-002   4.5881579997558354E-002   0.0000000000000000     
   4.9524295510464215E-002   5.0740555740316447E-002   0.0000000000000000     
   5.2378362626213718E-002   5.5793397545781581E-002   0.0000000000000000     
   5.5142243045353818E-002   6.1040105413953744E-002   0.0000000000000000     
   3.9568069366854315E-002   4.0330674700484223E-002   0.0000000000000000     
   4.2391568669425811E-002   4.5020004840501462E-002   0.0000000000000000     
   4.5131243905141040E-002   4.9903041078914460E-002   0.0000000000000000     
   4.7787095074000030E-002   5.4979783415723231E-002   0.0000000000000000     
   5.0359122176002753E-002   6.0250231850927781E-002   0.0000000000000000     
   3.5798866456911500E-002   3.9517825293463822E-002   0.0000000000000000     
   3.8405251586350109E-002   4.4221876420265843E-002   0.0000000000000000     
   4.0936709090784971E-002   4.9122638879925407E-002   0.0000000000000000     
   4.3393238970216068E-002   5.4220112672442540E-002   0.0000000000000000     
   4.5774841224643426E-002   5.9514297797817223E-002   0.0000000000000000     
   6.5305004538031133E-002   6.2781671069751993E-002   0.0000000000000000     
   6.8363360007348842E-002   6.8172111811146810E-002   0.0000000000000000     
   7.1329992010918178E-002   7.3741322240640977E-002   0.0000000000000000     
   7.4204900548739128E-002   7.9489302358234495E-002   0.0000000000000000     
   7.6988085620811691E-002   8.5416052163927364E-002   0.0000000000000000     
   6.0124203832696607E-002   6.1883918486895152E-002   0.0000000000000000     
   6.2991587291942250E-002   6.7296159561382046E-002   0.0000000000000000     
   6.5773428772263540E-002   7.2889764710496144E-002   0.0000000000000000     
   6.8469728273660477E-002   7.8664733934237507E-002   0.0000000000000000     
   7.1080485796133047E-002   8.4621067232606081E-002   0.0000000000000000     
   5.5142243045353818E-002   6.1040105413953744E-002   0.0000000000000000     
   5.7820980797880540E-002   6.6475239213379486E-002   0.0000000000000000     
   6.0419619913789913E-002   7.2093358812605327E-002   0.0000000000000000     
   6.2938160393081977E-002   7.7894464211631292E-002   0.0000000000000000     
   6.5376602235756684E-002   8.3878555410457328E-002   0.0000000000000000     
   5.0359122176002753E-002   6.0250231850927781E-002   0.0000000000000000     
   5.2851540525163700E-002   6.5709350767139171E-002   0.0000000000000000     
   5.5268565435497317E-002   7.1352104546968526E-002   0.0000000000000000     
   5.7610196907003607E-002   7.7178493190415823E-002   0.0000000000000000     
   5.9876434939682581E-002   8.3188516697481091E-002   0.0000000000000000     
   4.5774841224643426E-002   5.9514297797817223E-002   0.0000000000000000     
   4.8083266473791735E-002   6.4998494222661074E-002   0.0000000000000000     
   5.0320265337385719E-002   7.0666001913585727E-002   0.0000000000000000     
   5.2485837815425380E-002   7.6516820870591154E-002   0.0000000000000000     
   5.4579983907910710E-002   8.2550951093677383E-002   0.0000000000000000     
   7.6988085620811691E-002   8.5416052163927364E-002   0.0000000000000000     
   7.9670020094352645E-002   9.1508155613442319E-002   0.0000000000000000     
   8.2241176836578805E-002   9.7752196662502039E-002   0.0000000000000000     
   8.4701555847490159E-002  0.10414817531110659        0.0000000000000000     
   8.7051157127086706E-002  0.11069609155925589        0.0000000000000000     
   7.1080485796133047E-002   8.4621067232606081E-002   0.0000000000000000     
   7.3595956395081374E-002   9.0743783064073380E-002   0.0000000000000000     
   7.6006395125905568E-002   9.7017899887110848E-002   0.0000000000000000     
   7.8311801988605600E-002  0.10344341770171851        0.0000000000000000     
   8.0512176983181499E-002  0.11002033650789635        0.0000000000000000     
   6.5376602235756684E-002   8.3878555410457328E-002   0.0000000000000000     
   6.7725643182687506E-002   9.0029408890484094E-002   0.0000000000000000     
   6.9975980974747873E-002   9.6330801133112196E-002   0.0000000000000000     
   7.2127615611937812E-002  0.10278273213834165        0.0000000000000000     
   7.4180547094257296E-002  0.10938520190617243        0.0000000000000000     
   5.9876434939682581E-002   8.3188516697481091E-002   0.0000000000000000     
   6.2059080457171012E-002   8.9365033092674462E-002   0.0000000000000000     
   6.4149934383105733E-002   9.5690900400506082E-002   0.0000000000000000     
   6.6148996717486780E-002  0.10216611862097597        0.0000000000000000     
   6.8056267460314096E-002  0.10879068775408414        0.0000000000000000     
   5.4579983907910710E-002   8.2550951093677383E-002   0.0000000000000000     
   5.6596268218531913E-002   8.8750655670644468E-002   0.0000000000000000     
   5.8528255350979178E-002   9.5098197689292521E-002   0.0000000000000000     
   6.0375945305252504E-002  0.10159357714962151        0.0000000000000000     
   6.2139338081351900E-002  0.10823679405163152        0.0000000000000000     
   8.7051157127086706E-002  0.11069609155925589        0.0000000000000000     
   8.9314296640554819E-002  0.11739479157132422        0.0000000000000000     
   9.1515290353080855E-002  0.12424312151168575        0.0000000000000000     
   9.3654138264664830E-002  0.13124108138034049        0.0000000000000000     
   9.5730840375306742E-002  0.13838867117728845        0.0000000000000000     
   8.0512176983181499E-002  0.11002033650789635        0.0000000000000000     
   8.2629283408580584E-002  0.11674732234479930        0.0000000000000000     
   8.4684884563750229E-002  0.12362304125158230        0.0000000000000000     
   8.6678980448690421E-002  0.13064749322824534        0.0000000000000000     
   8.8611571063401173E-002  0.13782067827478842        0.0000000000000000     
   7.4180547094257296E-002  0.10938520190617243        0.0000000000000000     
   7.6154549737202509E-002  0.11613753997319434        0.0000000000000000     
   7.8069397856269637E-002  0.12303907587599709        0.0000000000000000     
   7.9925091451458680E-002  0.13008980961458075        0.0000000000000000     
   8.1721630522769664E-002  0.13728974118894524        0.0000000000000000     
   6.8056267460314096E-002  0.10879068775408414        0.0000000000000000     
   6.9890095626420567E-002  0.11556544445650929        0.0000000000000000     
   7.1668830230639080E-002  0.12249122538493014        0.0000000000000000     
   7.3392471272969634E-002  0.12956803053934671        0.0000000000000000     
   7.5061018753412229E-002  0.13679585991975893        0.0000000000000000     
   6.2139338081351900E-002  0.10823679405163152        0.0000000000000000     
   6.3835921076234786E-002  0.11503103579474422        0.0000000000000000     
   6.5483181686858585E-002  0.12197948977838145        0.0000000000000000     
   6.7081119913223269E-002  0.12908215600254322        0.0000000000000000     
   6.8629735755328866E-002  0.13633903446722948        0.0000000000000000     
   9.5730840375306742E-002  0.13838867117728845        0.0000000000000000     
   9.7713264660489407E-002  0.14565781941802558        0.0000000000000000     
   9.9569279095695684E-002  0.15302045461804786        0.0000000000000000     
  0.10129888368092552       0.16047657677735525        0.0000000000000000     
  0.10290207841617897       0.16802618589594778        0.0000000000000000     
   8.8611571063401173E-002  0.13782067827478842        0.0000000000000000     
   9.0453555780009645E-002  0.14511498697753772        0.0000000000000000     
   9.2175833970643023E-002  0.15250280992281942        0.0000000000000000     
   9.3778405635301348E-002  0.15998414711063355        0.0000000000000000     
   9.5261270773984566E-002  0.16755899854098005        0.0000000000000000     
   8.1721630522769664E-002  0.13728974118894524        0.0000000000000000     
   8.3432229394814067E-002  0.14461059679459548        0.0000000000000000     
   8.5030102392203433E-002  0.15202410262703631        0.0000000000000000     
   8.6515249514937761E-002  0.15953025868626777        0.0000000000000000     
   8.7887670763017026E-002  0.16712906497228983        0.0000000000000000     
   7.5061018753412229E-002  0.13679585991975893        0.0000000000000000     
   7.6649285504902687E-002  0.14414464886919887        0.0000000000000000     
   7.8132084360376858E-002  0.15158433273069857        0.0000000000000000     
   7.9509415319834742E-002  0.15911491150425794        0.0000000000000000     
   8.0781278383276339E-002  0.16673638518987710        0.0000000000000000     
   6.8629735755328866E-002  0.13633903446722948        0.0000000000000000     
   7.0104724110275504E-002  0.14371714320134790        0.0000000000000000     
   7.1481779875163326E-002  0.15118350023380611        0.0000000000000000     
   7.2760903049992345E-002  0.15873810556460408        0.0000000000000000     
   7.3942093634762535E-002  0.16638095919374185        0.0000000000000000     
   0.0000000000000000        0.0000000000000000        0.0000000000000000     
   2.8800508337347226E-003   1.7450137851173272E-003   0.0000000000000000     
   5.8726002615437489E-003   3.8649799588254966E-003   0.0000000000000000     
   8.9776482834270799E-003   6.3598985211245074E-003   0.0000000000000000     
   1.2195194899384715E-002   9.2297694720143621E-003   0.0000000000000000     
   0.0000000000000000        0.0000000000000000        0.0000000000000000     
   2.6103492966760814E-003   1.5890794677963080E-003   0.0000000000000000     
   5.2897654126627513E-003   3.5570009641505435E-003   0.0000000000000000     
   8.0382483479600111E-003   5.9037644890627058E-003   0.0000000000000000     
   1.0855798102567860E-002   8.6293700425327958E-003   0.0000000000000000     
   0.0000000000000000        0.0000000000000000        0.0000000000000000     
   2.3401747160038113E-003   1.4590801194488451E-003   0.0000000000000000     
   4.7203090676457941E-003   3.3000522870917214E-003   0.0000000000000000     
   7.1404030549259484E-003   5.5229165029286285E-003   0.0000000000000000     
   9.6004566778442723E-003   8.1276727669595660E-003   0.0000000000000000     
   0.0000000000000000        0.0000000000000000        0.0000000000000000     
   2.0695270917179130E-003   1.3550157400749386E-003   0.0000000000000000     
   4.1642312264928748E-003   3.0941339276490299E-003   0.0000000000000000     
   6.2841124043248875E-003   5.2173545627222746E-003   0.0000000000000000     
   8.4291706252139515E-003   7.7246776452946720E-003   0.0000000000000000     
   0.0000000000000000        0.0000000000000000        0.0000000000000000     
   1.7984064238183851E-003   1.2768863296745881E-003   0.0000000000000000     
   3.6215318892039968E-003   2.9392458858224701E-003   0.0000000000000000     
   5.4693763961568363E-003   4.9870786684436457E-003   0.0000000000000000     
   7.3419399446769014E-003   7.4203846775381154E-003   0.0000000000000000     
   1.2195194899384715E-002   9.2297694720143621E-003   0.0000000000000000     
   1.5427528255994411E-002   1.2372509805624368E-002   0.0000000000000000     
   1.8576936499833926E-002   1.5686036516083829E-002   0.0000000000000000     
   2.1643419630903257E-002   1.9170349603392752E-002   0.0000000000000000     
   2.4626977649202408E-002   2.2825449067551129E-002   0.0000000000000000     
   1.0855798102567860E-002   8.6293700425327958E-003   0.0000000000000000     
   1.3689137901112629E-002   1.1651524621498549E-002   0.0000000000000000     
   1.6484990968220651E-002   1.4887935222897707E-002   0.0000000000000000     
   1.9243357303891928E-002   1.8338601846730269E-002   0.0000000000000000     
   2.1964236908126461E-002   2.2003524492996231E-002   0.0000000000000000     
   9.6004566778442723E-003   8.1276727669595660E-003   0.0000000000000000     
   1.2077015808738326E-002   1.1046899291183916E-002   0.0000000000000000     
   1.4546626319945674E-002   1.4213174287601056E-002   0.0000000000000000     
   1.7009288211466314E-002   1.7626497756210988E-002   0.0000000000000000     
   1.9465001483300246E-002   2.1286869697013711E-002   0.0000000000000000     
   8.4291706252139515E-003   7.7246776452946720E-003   0.0000000000000000     
   1.0591161978871510E-002   1.0558633814680460E-002   0.0000000000000000     
   1.2761842555008994E-002   1.3661753710193871E-002   0.0000000000000000     
   1.4941212353626419E-002   1.7034037331834902E-002   0.0000000000000000     
   1.7129271374723771E-002   2.0675484679603562E-002   0.0000000000000000     
   7.3419399446769014E-003   7.4203846775381154E-003   0.0000000000000000     
   9.2315764115121698E-003   1.0186728191988181E-002   0.0000000000000000     
   1.1130639673410615E-002   1.3233673490676154E-002   0.0000000000000000     
   1.3039129730372238E-002   1.6561220573602022E-002   0.0000000000000000     
   1.4957046582397042E-002   2.0169369440765791E-002   0.0000000000000000     
   2.4626977649202408E-002   2.2825449067551129E-002   0.0000000000000000     
   2.7531792296119774E-002   2.6674092071108005E-002   0.0000000000000000     