 <VTKFile type="UnstructuredGrid"  version="0.1"   >
 <UnstructuredGrid>
 <Piece  NumberOfPoints="          1600 "  NumberOfCells="         1024 ">
 <Points>
 <DataArray  type="Float64" NumberOfComponents="3"  format="ascii" >
   0.0000000000000000        0.0000000000000000        0.0000000000000000     
   3.1250000000000000E-002   0.0000000000000000        0.0000000000000000     
   6.2500000000000000E-002   0.0000000000000000        0.0000000000000000     
   9.3750000000000000E-002   0.0000000000000000        0.0000000000000000     
  0.12500000000000000        0.0000000000000000        0.0000000000000000     
   0.0000000000000000        3.1250000000000000E-002   0.0000000000000000     
   3.1250000000000000E-002   3.1250000000000000E-002   0.0000000000000000     
   6.2500000000000000E-002   3.1250000000000000E-002   0.0000000000000000     
   9.3750000000000000E-002   3.1250000000000000E-002   0.0000000000000000     
  0.12500000000000000        3.1250000000000000E-002   0.0000000000000000     
   0.0000000000000000        6.2500000000000000E-002   0.0000000000000000     
   3.1250000000000000E-002   6.2500000000000000E-002   0.0000000000000000     
   6.2500000000000000E-002   6.2500000000000000E-002   0.0000000000000000     
   9.3750000000000000E-002   6.2500000000000000E-002   0.0000000000000000     
  0.12500000000000000        6.2500000000000000E-002   0.0000000000000000     
   0.0000000000000000        9.3750000000000000E-002   0.0000000000000000     
   3.1250000000000000E-002   9.3750000000000000E-002   0.0000000000000000     
   6.2500000000000000E-002   9.3750000000000000E-002   0.0000000000000000     
   9.3750000000000000E-002   9.3750000000000000E-002   0.0000000000000000     
  0.12500000000000000        9.3750000000000000E-002   0.0000000000000000     
   0.0000000000000000       0.12500000000000000        0.0000000000000000     
   3.1250000000000000E-002  0.12500000000000000        0.0000000000000000     
   6.2500000000000000E-002  0.12500000000000000        0.0000000000000000     
   9.3750000000000000E-002  0.12500000000000000        0.0000000000000000     
  0.12500000000000000       0.12500000000000000        0.0000000000000000     
  0.12500000000000000        0.0000000000000000        0.0000000000000000     
  0.15625000000000000        0.0000000000000000        0.0000000000000000     
  0.18750000000000000        0.0000000000000000        0.0000000000000000     
  0.21875000000000000        0.0000000000000000        0.0000000000000000     
  0.25000000000000000        0.0000000000000000        0.0000000000000000     
  0.12500000000000000        3.1250000000000000E-002   0.0000000000000000     
  0.15625000000000000        3.1250000000000000E-002   0.0000000000000000     
  0.18750000000000000        3.1250000000000000E-002   0.0000000000000000     
  0.21875000000000000        3.1250000000000000E-002   0.0000000000000000     
  0.25000000000000000        3.1250000000000000E-002   0.0000000000000000     
  0.12500000000000000        6.2500000000000000E-002   0.0000000000000000     
  0.15625000000000000        6.2500000000000000E-002   0.0000000000000000     
  0.18750000000000000        6.2500000000000000E-002   0.0000000000000000     
  0.21875000000000000        6.2500000000000000E-002   0.0000000000000000     
  0.25000000000000000        6.2500000000000000E-002   0.0000000000000000     
  0.12500000000000000        9.3750000000000000E-002   0.0000000000000000     
  0.15625000000000000        9.3750000000000000E-002   0.0000000000000000     
  0.18750000000000000        9.3750000000000000E-002   0.0000000000000000     
  0.21875000000000000        9.3750000000000000E-002   0.0000000000000000     
  0.25000000000000000        9.3750000000000000E-002   0.0000000000000000     
  0.12500000000000000       0.12500000000000000        0.0000000000000000     
  0.15625000000000000       0.12500000000000000        0.0000000000000000     
  0.18750000000000000       0.12500000000000000        0.0000000000000000     
  0.21875000000000000       0.12500000000000000        0.0000000000000000     
  0.25000000000000000       0.12500000000000000        0.0000000000000000     
  0.25000000000000000        0.0000000000000000        0.0000000000000000     
  0.28125000000000000        0.0000000000000000        0.0000000000000000     
  0.31250000000000000        0.0000000000000000        0.0000000000000000     
  0.34375000000000000        0.0000000000000000        0.0000000000000000     
  0.37500000000000000        0.0000000000000000        0.0000000000000000     
  0.25000000000000000        3.1250000000000000E-002   0.0000000000000000     
  0.28125000000000000        3.1250000000000000E-002   0.0000000000000000     
  0.31250000000000000        3.1250000000000000E-002   0.0000000000000000     
  0.34375000000000000        3.1250000000000000E-002   0.0000000000000000     
  0.37500000000000000        3.1250000000000000E-002   0.0000000000000000     
  0.25000000000000000        6.2500000000000000E-002   0.0000000000000000     
  0.28125000000000000        6.2500000000000000E-002   0.0000000000000000     
  0.31250000000000000        6.2500000000000000E-002   0.0000000000000000     
  0.34375000000000000        6.2500000000000000E-002   0.0000000000000000     
  0.37500000000000000        6.2500000000000000E-002   0.0000000000000000     
  0.25000000000000000        9.3750000000000000E-002   0.0000000000000000     
  0.28125000000000000        9.3750000000000000E-002   0.0000000000000000     
  0.31250000000000000        9.3750000000000000E-002   0.0000000000000000     
  0.34375000000000000        9.3750000000000000E-002   0.0000000000000000     
  0.37500000000000000        9.3750000000000000E-002   0.0000000000000000     
  0.25000000000000000       0.12500000000000000        0.0000000000000000     
  0.28125000000000000       0.12500000000000000        0.0000000000000000     
  0.31250000000000000       0.12500000000000000        0.0000000000000000     
  0.34375000000000000       0.12500000000000000        0.0000000000000000     
  0.37500000000000000       0.12500000000000000        0.0000000000000000     
  0.37500000000000000        0.0000000000000000        0.0000000000000000     
  0.40625000000000000        0.0000000000000000        0.0000000000000000     
  0.43750000000000000        0.0000000000000000        0.0000000000000000     
  0.46875000000000000        0.0000000000000000        0.0000000000000000     
  0.50000000000000000        0.0000000000000000        0.0000000000000000     
  0.37500000000000000        3.1250000000000000E-002   0.0000000000000000     
  0.40625000000000000        3.1250000000000000E-002   0.0000000000000000     
  0.43750000000000000        3.1250000000000000E-002   0.0000000000000000     
  0.46875000000000000        3.1250000000000000E-002   0.0000000000000000     
  0.50000000000000000        3.1250000000000000E-002   0.0000000000000000     
  0.37500000000000000        6.2500000000000000E-002   0.0000000000000000     
  0.40625000000000000        6.2500000000000000E-002   0.0000000000000000     
  0.43750000000000000        6.2500000000000000E-002   0.0000000000000000     
  0.46875000000000000        6.2500000000000000E-002   0.0000000000000000     
  0.50000000000000000        6.2500000000000000E-002   0.0000000000000000     
  0.37500000000000000        9.3750000000000000E-002   0.0000000000000000     
  0.40625000000000000        9.3750000000000000E-002   0.0000000000000000     
  0.43750000000000000        9.3750000000000000E-002   0.0000000000000000     
  0.46875000000000000        9.3750000000000000E-002   0.0000000000000000     
  0.50000000000000000        9.3750000000000000E-002   0.0000000000000000     
  0.37500000000000000       0.12500000000000000        0.0000000000000000     
  0.40625000000000000       0.12500000000000000        0.0000000000000000     
  0.43750000000000000       0.12500000000000000        0.0000000000000000     
  0.46875000000000000       0.12500000000000000        0.0000000000000000     
  0.50000000000000000       0.12500000000000000        0.0000000000000000     
  0.50000000000000000        0.0000000000000000        0.0000000000000000     
  0.53125000000000000        0.0000000000000000        0.0000000000000000     
  0.56250000000000000        0.0000000000000000        0.0000000000000000     
  0.59375000000000000        0.0000000000000000        0.0000000000000000     
  0.62500000000000000        0.0000000000000000        0.0000000000000000     
  0.50000000000000000        3.1250000000000000E-002   0.0000000000000000     
  0.53125000000000000        3.1250000000000000E-002   0.0000000000000000     
  0.56250000000000000        3.1250000000000000E-002   0.0000000000000000     
  0.59375000000000000        3.1250000000000000E-002   0.0000000000000000     
  0.62500000000000000        3.1250000000000000E-002   0.0000000000000000     
  0.50000000000000000        6.2500000000000000E-002   0.0000000000000000     
  0.53125000000000000        6.2500000000000000E-002   0.0000000000000000     
  0.56250000000000000        6.2500000000000000E-002   0.0000000000000000     
  0.59375000000000000        6.2500000000000000E-002   0.0000000000000000     
  0.62500000000000000        6.2500000000000000E-002   0.0000000000000000     
  0.50000000000000000        9.3750000000000000E-002   0.0000000000000000     
  0.53125000000000000        9.3750000000000000E-002   0.0000000000000000     
  0.56250000000000000        9.3750000000000000E-002   0.0000000000000000     
  0.59375000000000000        9.3750000000000000E-002   0.0000000000000000     
  0.62500000000000000        9.3750000000000000E-002   0.0000000000000000     
  0.50000000000000000       0.12500000000000000        0.0000000000000000     
  0.53125000000000000       0.12500000000000000        0.0000000000000000     
  0.56250000000000000       0.12500000000000000        0.0000000000000000     
[...]
 <PointData>
 <DataArray  type="Float64" Name="disp" NumberOfComponents="3" format="ascii">
   0.0000000000000000        0.0000000000000000        0.0000000000000000     
   6.0961257203980181E-003   3.7908791011964978E-003   0.0000000000000000     
   1.1666120293334581E-002   7.3244439844717922E-003   0.0000000000000000     
   1.6709983718809690E-002   1.0600694649825881E-002   0.0000000000000000     
   2.1227715996823340E-002   1.3619631097258767E-002   0.0000000000000000     
   0.0000000000000000        0.0000000000000000        0.0000000000000000     
   4.8911714201026035E-003   3.0224289365589014E-003   0.0000000000000000     
   9.5735977824703174E-003   6.0609569330903985E-003   0.0000000000000000     
   1.4047279087103140E-002   9.1155839895944932E-003   0.0000000000000000     
   1.8312215334001073E-002   1.2186310106071180E-002   0.0000000000000000     
   0.0000000000000000        0.0000000000000000        0.0000000000000000     
   3.9535086153324461E-003   2.4253003732375615E-003   0.0000000000000000     
   7.9105065631215939E-003   5.0632065578140048E-003   0.0000000000000000     
   1.1870993843367443E-002   7.9137185537293282E-003   0.0000000000000000     
   1.5834970456069991E-002   1.0976836360983533E-002   0.0000000000000000     
   0.0000000000000000        0.0000000000000000        0.0000000000000000     
   3.2831373060875496E-003   1.9994934112324792E-003   0.0000000000000000     
   6.6768466352884158E-003   4.3311928586426103E-003   0.0000000000000000     
   1.0181127987602597E-002   6.9950983422303898E-003   0.0000000000000000     
   1.3795981363030093E-002   9.9912098619958194E-003   0.0000000000000000     
   0.0000000000000000        0.0000000000000000        0.0000000000000000     
   2.8800574923679113E-003   1.7450080505436549E-003   0.0000000000000000     
   5.8726179989707777E-003   3.8649158355762141E-003   0.0000000000000000     
   8.9776815198086002E-003   6.3597233550976764E-003   0.0000000000000000     
   1.2195248054881378E-002   9.2294306091080438E-003   0.0000000000000000     
   2.1227715996823340E-002   1.3619631097258767E-002   0.0000000000000000     
   2.5432458539835966E-002   1.6612281717547618E-002   0.0000000000000000     
   2.9537352760308003E-002   1.9809674901469610E-002   0.0000000000000000     
   3.3542398658239450E-002   2.3211810649024740E-002   0.0000000000000000     
   3.7447596233630295E-002   2.6818688960213007E-002   0.0000000000000000     
   1.8312215334001073E-002   1.2186310106071180E-002   0.0000000000000000     
   2.2406682328419265E-002   1.5341703827966992E-002   0.0000000000000000     
   2.6368955875612863E-002   1.8650333700728442E-002   0.0000000000000000     
   3.0199035975581875E-002   2.2112199724355533E-002   0.0000000000000000     
   3.3896922628326290E-002   2.5727301898848268E-002   0.0000000000000000     
   1.5834970456069991E-002   1.0976836360983533E-002   0.0000000000000000     
   1.9730612562323769E-002   1.4211474736308858E-002   0.0000000000000000     
   2.3486096323223311E-002   1.7576548436437540E-002   0.0000000000000000     
   2.7101421738768602E-002   2.1072057461369580E-002   0.0000000000000000     
   3.0576588808959661E-002   2.4698001811104976E-002   0.0000000000000000     
   1.3795981363030093E-002   9.9912098619958194E-003   0.0000000000000000     
   1.7404249241549478E-002   1.3221594442573219E-002   0.0000000000000000     
   2.0888774103139329E-002   1.6588319108596906E-002   0.0000000000000000     
   2.4249555947799640E-002   2.0091383860066873E-002   0.0000000000000000     
   2.7486594775530424E-002   2.3730788696983127E-002   0.0000000000000000     
   1.2195248054881378E-002   9.2294306091080438E-003   0.0000000000000000     
   1.5427592366096393E-002   1.2372062946760076E-002   0.0000000000000000     
   1.8576989215360926E-002   1.5685645717206532E-002   0.0000000000000000     
   2.1643438602674984E-002   1.9170178920447419E-002   0.0000000000000000     
   2.4626940528038564E-002   2.2825662556482725E-002   0.0000000000000000     
   3.7447596233630295E-002   2.6818688960213007E-002   0.0000000000000000     
   4.1256392880113325E-002   3.0624737953809718E-002   0.0000000000000000     
   4.4972235991321281E-002   3.4624385748590183E-002   0.0000000000000000     
   4.8595125567254184E-002   3.8817632344554397E-002   0.0000000000000000     
   5.2125061607912013E-002   4.3204477741702357E-002   0.0000000000000000     
   3.3896922628326290E-002   2.5727301898848268E-002   0.0000000000000000     
   3.7485463199692627E-002   2.9523994083154537E-002   0.0000000000000000     
   4.0987505055527410E-002   3.3530630136222227E-002   0.0000000000000000     
   4.4403048195830616E-002   3.7747210058051338E-002   0.0000000000000000     
   4.7732092620602282E-002   4.2173733848641863E-002   0.0000000000000000     
   3.0576588808959661E-002   2.4698001811104976E-002   0.0000000000000000     
   3.3941037617054796E-002   2.8498710024558088E-002   0.0000000000000000     
   3.7224208246312306E-002   3.2518510640643261E-002   0.0000000000000000     
   4.0426100696732192E-002   3.6757403659360512E-002   0.0000000000000000     
   4.3546714968314471E-002   4.1215389080709819E-002   0.0000000000000000     
   2.7486594775530424E-002   2.3730788696983127E-002   0.0000000000000000     
   3.0623116132199819E-002   2.7548885778020372E-002   0.0000000000000000     
   3.3682345563675976E-002   3.1588027261853308E-002   0.0000000000000000     
   3.6664283069958913E-002   3.5848213148481925E-002   0.0000000000000000     
   3.9568928651048621E-002   4.0329443437906239E-002   0.0000000000000000     
   2.4626940528038564E-002   2.2825662556482725E-002   0.0000000000000000     
   2.7531698745127699E-002   2.6674521343541389E-002   0.0000000000000000     
   3.0361917007618432E-002   3.0739179999852338E-002   0.0000000000000000     
   3.3117595315510763E-002   3.5019638525415578E-002   0.0000000000000000     
   3.5798733668804691E-002   3.9515896920231108E-002   0.0000000000000000     
   5.2125061607912013E-002   4.3204477741702357E-002   0.0000000000000000     
   5.5562220564434148E-002   4.7791241157502856E-002   0.0000000000000000     
   5.8906778887959962E-002   5.2584241809424649E-002   0.0000000000000000     
   6.2158736578489443E-002   5.7583479697467757E-002   0.0000000000000000     
   6.5318093636022603E-002   6.2788954821632159E-002   0.0000000000000000     
   4.7732092620602282E-002   4.2173733848641863E-002   0.0000000000000000     
   5.0971458698690880E-002   4.6804488268518865E-002   0.0000000000000000     
   5.4117966798944955E-002   5.1633760078207386E-002   0.0000000000000000     
   5.7171616921364507E-002   5.6661549277707425E-002   0.0000000000000000     
   6.0132409065949521E-002   6.1887855867018969E-002   0.0000000000000000     
   4.3546714968314471E-002   4.1215389080709819E-002   0.0000000000000000     
   4.6581678612013747E-002   4.5880237767690832E-002   0.0000000000000000     
   4.9526619178784592E-002   5.0739720583303144E-002   0.0000000000000000     
   5.2381536668627042E-002   5.5793837527546769E-002   0.0000000000000000     
   5.5146431081541082E-002   6.1042588600421700E-002   0.0000000000000000     
   3.9568928651048621E-002   4.0329443437906239E-002   0.0000000000000000     
   4.2392880304402719E-002   4.5018489655018736E-002   0.0000000000000000     
   4.5132736027478873E-002   4.9902123324711924E-002   0.0000000000000000     
   4.7788495820277048E-002   5.4980344446985796E-002   0.0000000000000000     
   5.0360159682797272E-002   6.0253153021840346E-002   0.0000000000000000     
   3.5798733668804691E-002   3.9515896920231108E-002   0.0000000000000000     
   3.8405063775857826E-002   4.4219243930502590E-002   0.0000000000000000     
   4.0936317345027777E-002   4.9120968302433725E-002   0.0000000000000000     
   4.3392494376314525E-002   5.4221070036024492E-002   0.0000000000000000     
   4.5773594869718104E-002   5.9519549131274913E-002   0.0000000000000000     
   6.5318093636022603E-002   6.2788954821632159E-002   0.0000000000000000     
   6.8382257963977899E-002   6.8185422856452890E-002   0.0000000000000000     
   7.1348637465773829E-002   7.3757639476464909E-002   0.0000000000000000     
   7.4217232141410364E-002   7.9505604681668257E-002   0.0000000000000000     
   7.6988041990887504E-002   8.5429318472062893E-002   0.0000000000000000     
   6.0132409065949521E-002   6.1887855867018969E-002   0.0000000000000000     
   6.3002076333158241E-002   6.7303271481413254E-002   0.0000000000000000     
   6.5782351823448881E-002   7.2898387756161434E-002   0.0000000000000000     
   6.8473235536821442E-002   7.8673204691263557E-002   0.0000000000000000     
   7.1074727473275937E-002   8.4627722286719595E-002   0.0000000000000000     
   5.5146431081541082E-002   6.1042588600421700E-002   0.0000000000000000     
   5.7825163861166158E-002   6.6479528151252645E-002   0.0000000000000000     
   6.0421596451141750E-002   7.2098210529364395E-002   0.0000000000000000     
   6.2935728851467851E-002   7.7898635734756846E-002   0.0000000000000000     
   6.5367561062144461E-002   8.3880803767430082E-002   0.0000000000000000     
   5.0360159682797272E-002   6.0253153021840346E-002   0.0000000000000000     
   5.2851520548001685E-002   6.5714192865971147E-002   0.0000000000000000     
   5.5266371348852456E-002   7.1357107796073710E-002   0.0000000000000000     
   5.7604712085349584E-002   7.7181897812148140E-002   0.0000000000000000     
   5.9866542757493077E-002   8.3188562914194325E-002   0.0000000000000000     
   4.5773594869718104E-002   5.9519549131274913E-002   0.0000000000000000     
   4.8081146393664814E-002   6.5007265625568661E-002   0.0000000000000000     
   5.0316676516580998E-002   7.0675079556289502E-002   0.0000000000000000     
   5.2480185238466655E-002   7.6522990923437381E-002   0.0000000000000000     
   5.4571672559321785E-002   8.2550999727012339E-002   0.0000000000000000     
   7.6988041990887504E-002   8.5429318472062893E-002   0.0000000000000000     
   7.9660741672973656E-002   9.1517816930281687E-002   0.0000000000000000     
   8.2235005846437184E-002   9.7760136138957496E-002   0.0000000000000000     
   8.4710834511278102E-002  0.10415627609809029        0.0000000000000000     
   8.7088227667496396E-002  0.11070623680768010        0.0000000000000000     
   7.1074727473275937E-002   8.4627722286719595E-002   0.0000000000000000     
   7.3585000022714411E-002   9.0749385248700243E-002   0.0000000000000000     
   7.6002225575038940E-002   9.7025638283376223E-002   0.0000000000000000     
   7.8326404130249508E-002  0.10345648139074751        0.0000000000000000     
   8.0557535688346116E-002  0.11004191457081409        0.0000000000000000     
   6.5367561062144461E-002   8.3880803767430082E-002   0.0000000000000000     
   6.7714451606834508E-002   9.0031431885186419E-002   0.0000000000000000     
   6.9973759009200956E-002   9.6337237345828330E-002   0.0000000000000000     
   7.2145483269243749E-002  0.10279822014935569        0.0000000000000000     
   7.4229624386962928E-002  0.10941438029576864        0.0000000000000000     
   5.9866542757493077E-002   8.3188562914194325E-002   0.0000000000000000     
   6.2049096425333940E-002   8.9363956839740230E-002   0.0000000000000000     
   6.4149606148923191E-002   9.5694933326313750E-002   0.0000000000000000     
   6.6168071928260824E-002  0.10218149237391493        0.0000000000000000     
   6.8104493763346832E-002  0.10882363398254372        0.0000000000000000     
   5.4571672559321785E-002   8.2550999727012339E-002   0.0000000000000000     
   5.6588934478212685E-002   8.8746960112361634E-002   0.0000000000000000     
   5.8529766994205666E-002   9.5098726224832564E-002   0.0000000000000000     
   6.0394170107300721E-002  0.10160629806442516        0.0000000000000000     
   6.2182143817497842E-002  0.10826967563113934        0.0000000000000000     
   8.7088227667496396E-002  0.11070623680768010        0.0000000000000000     
   8.9376558524375260E-002  0.11741059812696032        0.0000000000000000     
   9.1585200291197849E-002  0.12426993991516434        0.0000000000000000     
   9.3714152967964134E-002  0.13128426217229217        0.0000000000000000     
   9.5763416554674172E-002  0.13845356489834382        0.0000000000000000     
   8.0557535688346116E-002  0.11004191457081409        0.0000000000000000     
   8.2700060722687874E-002  0.11677626922473938        0.0000000000000000     
   8.4758419706633892E-002  0.12365387675368669        0.0000000000000000     
   8.6732612640184184E-002  0.13067473715765607        0.0000000000000000     
   8.8622639523338750E-002  0.13783885043664748        0.0000000000000000     
   7.4229624386962928E-002  0.10941438029576864        0.0000000000000000     
   7.6227892159844449E-002  0.11617654532593495        0.0000000000000000     
   7.8141996385374266E-002  0.12307554278072258        0.0000000000000000     
   7.9971937063552379E-002  0.13011137266013148        0.0000000000000000     
   8.1717714194378774E-002  0.13728403496416169        0.0000000000000000     
   6.8104493763346832E-002  0.10882363398254372        0.0000000000000000     
   6.9960052835844957E-002  0.11561142643054712        0.0000000000000000     
   7.1735930327418915E-002  0.12253493799627199        0.0000000000000000     
   7.3432126238068690E-002  0.12959416867971843        0.0000000000000000     
   7.5048640567794297E-002  0.13678911848088640        0.0000000000000000     
   6.2182143817497842E-002  0.10826967563113934        0.0000000000000000     
   6.3896542750689442E-002  0.11508091253857576        0.0000000000000000     
   6.5540221532767867E-002  0.12203206240033493        0.0000000000000000     
   6.7113180163733160E-002  0.12912312521641689        0.0000000000000000     
   6.8615418643585294E-002  0.13635410098682163        0.0000000000000000     
   9.5763416554674172E-002  0.13845356489834382        0.0000000000000000     
   9.7710240513843985E-002  0.14572911329726043        0.0000000000000000     
   9.9531874307989640E-002  0.15306217257298310        0.0000000000000000     
  0.10122831793711112       0.16045274272551188        0.0000000000000000     
  0.10279957140120846       0.16790082375484675        0.0000000000000000     
   8.8622639523338750E-002  0.13783885043664748        0.0000000000000000     
   9.0420686604136546E-002  0.14512025043375806        0.0000000000000000     
   9.2118940130616597E-002  0.15249297099208489        0.0000000000000000     
   9.3717400102778847E-002  0.15995701211162797        0.0000000000000000     
   9.5216066520623366E-002  0.16751237379238731        0.0000000000000000     
   8.1717714194378774E-002  0.13728403496416169        0.0000000000000000     
   8.3380395393728865E-002  0.14457971090350494        0.0000000000000000     
   8.4961048277477913E-002  0.15198458168885301        0.0000000000000000     
   8.6459672845626015E-002  0.15949864732020588        0.0000000000000000     
   8.7876269098173115E-002  0.16712190779756358        0.0000000000000000     
   7.5048640567794297E-002  0.13678911848088640        0.0000000000000000     
   7.6589366882620899E-002  0.14410749470650103        0.0000000000000000     
   7.8058198748573671E-002  0.15153700466328743        0.0000000000000000     
   7.9455136165652612E-002  0.15907764835124563        0.0000000000000000     
   8.0780179133857724E-002  0.16672942577037558        0.0000000000000000     
   6.8615418643585294E-002  0.13635410098682163        0.0000000000000000     
   7.0047601070812704E-002  0.14370360184274633        0.0000000000000000     
   7.1410391543903814E-002  0.15115023991538817        0.0000000000000000     
   7.2703790062858653E-002  0.15869401520474713        0.0000000000000000     
   7.3927796627677178E-002  0.16633492771082325        0.0000000000000000     
   0.0000000000000000        0.0000000000000000        0.0000000000000000     
   2.8800574923679113E-003   1.7450080505436549E-003   0.0000000000000000     
   5.8726179989707777E-003   3.8649158355762141E-003   0.0000000000000000     
   8.9776815198086002E-003   6.3597233550976764E-003   0.0000000000000000     
   1.2195248054881378E-002   9.2294306091080438E-003   0.0000000000000000     
   0.0000000000000000        0.0000000000000000        0.0000000000000000     
   2.6103818941982096E-003   1.5891317336047932E-003   0.0000000000000000     
   5.2897917673555631E-003   3.5570048036156067E-003   0.0000000000000000     
   8.0382296194720614E-003   5.9036192100324417E-003   0.0000000000000000     
   1.0855695450547705E-002   8.6289749528552957E-003   0.0000000000000000     
   0.0000000000000000        0.0000000000000000        0.0000000000000000     
   2.3402232316031214E-003   1.4591519028496001E-003   0.0000000000000000     
   4.7203390536296507E-003   3.3000890777615780E-003   0.0000000000000000     
   7.1403474660795899E-003   5.5228115247359334E-003   0.0000000000000000     
   9.6002484689529360E-003   8.1273192437726679E-003   0.0000000000000000     
   0.0000000000000000        0.0000000000000000        0.0000000000000000     
   2.0695815045826470E-003   1.3550685582780760E-003   0.0000000000000000     
   4.1642598577930415E-003   3.0941686580141280E-003   0.0000000000000000     
   6.2840350596311823E-003   5.2173002992081576E-003   0.0000000000000000     
   8.4289071100970680E-003   7.7244634818601629E-003   0.0000000000000000     
   0.0000000000000000        0.0000000000000000        0.0000000000000000     
   1.7984567131367870E-003   1.2768816998902197E-003   0.0000000000000000     
   3.6215541798457337E-003   2.9392435443732559E-003   0.0000000000000000     
   5.4692924001268385E-003   4.9870855334491083E-003   0.0000000000000000     
   7.3416713739801048E-003   7.4204076671177781E-003   0.0000000000000000     
   1.2195248054881378E-002   9.2294306091080438E-003   0.0000000000000000     
   1.5427592366096393E-002   1.2372062946760076E-002   0.0000000000000000     
   1.8576989215360926E-002   1.5685645717206532E-002   0.0000000000000000     
   2.1643438602674984E-002   1.9170178920447419E-002   0.0000000000000000     
   2.4626940528038564E-002   2.2825662556482725E-002   0.0000000000000000     
   1.0855695450547705E-002   8.6289749528552957E-003   0.0000000000000000     
   1.3688961265166732E-002   1.1650963861236841E-002   0.0000000000000000     
   1.6484799067913388E-002   1.4887477764329748E-002   0.0000000000000000     
   1.9243208858787664E-002   1.8338516662134013E-002   0.0000000000000000     
   2.1964190637789559E-002   2.2004080554649648E-002   0.0000000000000000     
   9.6002484689529360E-003   8.1273192437726679E-003   0.0000000000000000     
   1.2076675267962720E-002   1.1046380798370930E-002   0.0000000000000000     
   1.4546261068821970E-002   1.4212764752029870E-002   0.0000000000000000     
   1.7009005871530689E-002   1.7626471104749485E-002   0.0000000000000000     
   1.9464909676088875E-002   2.1287499856529779E-002   0.0000000000000000     
   8.4289071100970680E-003   7.7244634818601629E-003   0.0000000000000000     
   1.0590734374484354E-002   1.0558313758162342E-002   0.0000000000000000     
   1.2761375218086693E-002   1.3661506680306896E-002   0.0000000000000000     
   1.4940829640904076E-002   1.7034042248293822E-002   0.0000000000000000     
   1.7129097642936516E-002   2.0675920462123121E-002   0.0000000000000000     
   7.3416713739801048E-003   7.4204076671177781E-003   0.0000000000000000     
   9.2311385847316362E-003   1.0186762740611080E-002   0.0000000000000000     
   1.1130141515707544E-002   1.3233703549160829E-002   0.0000000000000000     
   1.3038680166907821E-002   1.6561230092767023E-002   0.0000000000000000     
   1.4956754538332472E-002   2.0169342371429665E-002   0.0000000000000000     
   2.4626940528038564E-002   2.2825662556482725E-002   0.0000000000000000     
   2.7531698745127699E-002   2.6674521343541389E-002   0.0000000000000000     