 <VTKFile type="UnstructuredGrid"  version="0.1"   >
 <UnstructuredGrid>
 <Piece  NumberOfPoints="          1600 "  NumberOfCells="         1024 ">
 <Points>
 <DataArray  type="Float64" NumberOfComponents="3"  format="ascii" >
   0.0000000000000000        0.0000000000000000        0.0000000000000000     
   3.1250000000000000E-002   0.0000000000000000        0.0000000000000000     
   6.2500000000000000E-002   0.0000000000000000        0.0000000000000000     
   9.3750000000000000E-002   0.0000000000000000        0.0000000000000000     
  0.12500000000000000        0.0000000000000000        0.0000000000000000     
   0.0000000000000000        3.1250000000000000E-002   0.0000000000000000     
   3.1250000000000000E-002   3.1250000000000000E-002   0.0000000000000000     
   6.2500000000000000E-002   3.1250000000000000E-002   0.0000000000000000     
   9.3750000000000000E-002   3.1250000000000000E-002   0.0000000000000000     
  0.12500000000000000        3.1250000000000000E-002   0.0000000000000000     
   0.0000000000000000        6.2500000000000000E-002   0.0000000000000000     
   3.1250000000000000E-002   6.2500000000000000E-002   0.0000000000000000     
   6.2500000000000000E-002   6.2500000000000000E-002   0.0000000000000000     
   9.3750000000000000E-002   6.2500000000000000E-002   0.0000000000000000     
  0.12500000000000000        6.2500000000000000E-002   0.0000000000000000     
   0.0000000000000000        9.3750000000000000E-002   0.0000000000000000     
   3.1250000000000000E-002   9.3750000000000000E-002   0.0000000000000000     
   6.2500000000000000E-002   9.3750000000000000E-002   0.0000000000000000     
   9.3750000000000000E-002   9.3750000000000000E-002   0.0000000000000000     
  0.12500000000000000        9.3750000000000000E-002   0.0000000000000000     
   0.0000000000000000       0.12500000000000000        0.0000000000000000     
   3.1250000000000000E-002  0.12500000000000000        0.0000000000000000     
   6.2500000000000000E-002  0.12500000000000000        0.0000000000000000     
   9.3750000000000000E-002  0.12500000000000000        0.0000000000000000     
  0.12500000000000000       0.12500000000000000        0.0000000000000000     
  0.12500000000000000        0.0000000000000000        0.0000000000000000     
  0.15625000000000000        0.0000000000000000        0.0000000000000000     
  0.18750000000000000        0.0000000000000000        0.0000000000000000     
  0.21875000000000000        0.0000000000000000        0.0000000000000000     
  0.25000000000000000        0.0000000000000000        0.0000000000000000     
  0.12500000000000000        3.1250000000000000E-002   0.0000000000000000     
  0.15625000000000000        3.1250000000000000E-002   0.0000000000000000     
  0.18750000000000000        3.1250000000000000E-002   0.0000000000000000     
  0.21875000000000000        3.1250000000000000E-002   0.0000000000000000     
  0.25000000000000000        3.1250000000000000E-002   0.0000000000000000     
  0.12500000000000000        6.2500000000000000E-002   0.0000000000000000     
  0.15625000000000000        6.2500000000000000E-002   0.0000000000000000     
  0.18750000000000000        6.2500000000000000E-002   0.0000000000000000     
  0.21875000000000000        6.2500000000000000E-002   0.0000000000000000     
  0.25000000000000000        6.2500000000000000E-002   0.0000000000000000     
  0.12500000000000000        9.3750000000000000E-002   0.0000000000000000     
  0.15625000000000000        9.3750000000000000E-002   0.0000000000000000     
  0.18750000000000000        9.3750000000000000E-002   0.0000000000000000     
  0.21875000000000000        9.3750000000000000E-002   0.0000000000000000     
  0.25000000000000000        9.3750000000000000E-002   0.0000000000000000     
  0.12500000000000000       0.12500000000000000        0.0000000000000000     
  0.15625000000000000       0.12500000000000000        0.0000000000000000     
  0.18750000000000000       0.12500000000000000        0.0000000000000000     
  0.21875000000000000       0.12500000000000000        0.0000000000000000     
  0.25000000000000000       0.12500000000000000        0.0000000000000000     
  0.25000000000000000        0.0000000000000000        0.0000000000000000     
  0.28125000000000000        0.0000000000000000        0.0000000000000000     
  0.31250000000000000        0.0000000000000000        0.0000000000000000     
  0.34375000000000000        0.0000000000000000        0.0000000000000000     
  0.37500000000000000        0.0000000000000000        0.0000000000000000     
  0.25000000000000000        3.1250000000000000E-002   0.0000000000000000     
  0.28125000000000000        3.1250000000000000E-002   0.0000000000000000     
  0.31250000000000000        3.1250000000000000E-002   0.0000000000000000     
  0.34375000000000000        3.1250000000000000E-002   0.0000000000000000     
  0.37500000000000000        3.1250000000000000E-002   0.0000000000000000     
  0.25000000000000000        6.2500000000000000E-002   0.0000000000000000     
  0.28125000000000000        6.2500000000000000E-002   0.0000000000000000     
  0.31250000000000000        6.2500000000000000E-002   0.0000000000000000     
  0.34375000000000000        6.2500000000000000E-002   0.0000000000000000     
  0.37500000000000000        6.2500000000000000E-002   0.0000000000000000     
  0.25000000000000000        9.3750000000000000E-002   0.0000000000000000     
  0.28125000000000000        9.3750000000000000E-002   0.0000000000000000     
  0.31250000000000000        9.3750000000000000E-002   0.0000000000000000     
  0.34375000000000000        9.3750000000000000E-002   0.0000000000000000     
  0.37500000000000000        9.3750000000000000E-002   0.0000000000000000     
  0.25000000000000000       0.12500000000000000        0.0000000000000000     
  0.28125000000000000       0.12500000000000000        0.0000000000000000     
  0.31250000000000000       0.12500000000000000        0.0000000000000000     
  0.34375000000000000       0.12500000000000000        0.0000000000000000     
  0.37500000000000000       0.12500000000000000        0.0000000000000000     
  0.37500000000000000        0.0000000000000000        0.0000000000000000     
  0.40625000000000000        0.0000000000000000        0.0000000000000000     
  0.43750000000000000        0.0000000000000000        0.0000000000000000     
  0.46875000000000000        0.0000000000000000        0.0000000000000000     
  0.50000000000000000        0.0000000000000000        0.0000000000000000     
  0.37500000000000000        3.1250000000000000E-002   0.0000000000000000     
  0.40625000000000000        3.1250000000000000E-002   0.0000000000000000     
  0.43750000000000000        3.1250000000000000E-002   0.0000000000000000     
  0.46875000000000000        3.1250000000000000E-002   0.0000000000000000     
  0.50000000000000000        3.1250000000000000E-002   0.0000000000000000     
  0.37500000000000000        6.2500000000000000E-002   0.0000000000000000     
  0.40625000000000000        6.2500000000000000E-002   0.0000000000000000     
  0.43750000000000000        6.2500000000000000E-002   0.0000000000000000     
  0.46875000000000000        6.2500000000000000E-002   0.0000000000000000     
  0.50000000000000000        6.2500000000000000E-002   0.0000000000000000     
  0.37500000000000000        9.3750000000000000E-002   0.0000000000000000     
  0.40625000000000000        9.3750000000000000E-002   0.0000000000000000     
  0.43750000000000000        9.3750000000000000E-002   0.0000000000000000     
  0.46875000000000000        9.3750000000000000E-002   0.0000000000000000     
  0.50000000000000000        9.3750000000000000E-002   0.0000000000000000     
  0.37500000000000000       0.12500000000000000        0.0000000000000000     
  0.40625000000000000       0.12500000000000000        0.0000000000000000     
  0.43750000000000000       0.12500000000000000        0.0000000000000000     
  0.46875000000000000       0.12500000000000000        0.0000000000000000     
  0.50000000000000000       0.12500000000000000        0.0000000000000000     
  0.50000000000000000        0.0000000000000000        0.0000000000000000     
  0.53125000000000000        0.0000000000000000        0.0000000000000000     
  0.56250000000000000        0.0000000000000000        0.0000000000000000     
  0.59375000000000000        0.0000000000000000        0.0000000000000000     
  0.62500000000000000        0.0000000000000000        0.0000000000000000     
  0.50000000000000000        3.1250000000000000E-002   0.0000000000000000     
  0.53125000000000000        3.1250000000000000E-002   0.0000000000000000     
  0.56250000000000000        3.1250000000000000E-002   0.0000000000000000     
  0.59375000000000000        3.1250000000000000E-002   0.0000000000000000     
  0.62500000000000000        3.1250000000000000E-002   0.0000000000000000     
  0.50000000000000000        6.2500000000000000E-002   0.0000000000000000     
  0.53125000000000000        6.2500000000000000E-002   0.0000000000000000     
  0.56250000000000000        6.2500000000000000E-002   0.0000000000000000     
  0.59375000000000000        6.2500000000000000E-002   0.0000000000000000     
  0.62500000000000000        6.2500000000000000E-002   0.0000000000000000     
  0.50000000000000000        9.3750000000000000E-002   0.0000000000000000     
  0.53125000000000000        9.3750000000000000E-002   0.0000000000000000     
  0.56250000000000000        9.3750000000000000E-002   0.0000000000000000     
  0.59375000000000000        9.3750000000000000E-002   0.0000000000000000     
  0.62500000000000000        9.3750000000000000E-002   0.0000000000000000     
  0.50000000000000000       0.12500000000000000        0.0000000000000000     
  0.53125000000000000       0.12500000000000000        0.0000000000000000     
  0.56250000000000000       0.12500000000000000        0.0000000000000000     
[...]
 <PointData>
 <DataArray  type="Float64" Name="disp" NumberOfComponents="3" format="ascii">
   0.0000000000000000        0.0000000000000000        0.0000000000000000     
   6.0960919567328888E-003   3.7903954521696444E-003   0.0000000000000000     
   1.1666256637743157E-002   7.3237956735094454E-003   0.0000000000000000     
   1.6710494043030807E-002   1.0600200664019403E-002   0.0000000000000000     
   2.1228804172595844E-002   1.3619610423699515E-002   0.0000000000000000     
   0.0000000000000000        0.0000000000000000        0.0000000000000000     
   4.8912572565773501E-003   3.0221029932192989E-003   0.0000000000000000     
   9.5738633713361165E-003   6.0604627339629390E-003   0.0000000000000000     
   1.4047818344276302E-002   9.1150792222309193E-003   0.0000000000000000     
   1.8313122175397906E-002   1.2185952458023241E-002   0.0000000000000000     
   0.0000000000000000        0.0000000000000000        0.0000000000000000     
   3.9536606394779883E-003   2.4250650582799222E-003   0.0000000000000000     
   7.9108349371011799E-003   5.0627959907283112E-003   0.0000000000000000     
   1.1871522892869576E-002   7.9131927973451685E-003   0.0000000000000000     
   1.5835724506783173E-002   1.0976255478130491E-002   0.0000000000000000     
   0.0000000000000000        0.0000000000000000        0.0000000000000000     
   3.2833021054348025E-003   1.9992816473515139E-003   0.0000000000000000     
   6.6771713350383460E-003   4.3307954438055627E-003   0.0000000000000000     
   1.0181607688810629E-002   6.9945413893621466E-003   0.0000000000000000     
   1.3796611166751654E-002   9.9905194840212638E-003   0.0000000000000000     
   0.0000000000000000        0.0000000000000000        0.0000000000000000     
   2.8801816544477932E-003   1.7447527604340747E-003   0.0000000000000000     
   5.8728725651476148E-003   3.8644610931946929E-003   0.0000000000000000     
   8.9780727320994628E-003   6.3591249982818546E-003   0.0000000000000000     
   1.2195782155303340E-002   9.2287444756955616E-003   0.0000000000000000     
   2.1228804172595844E-002   1.3619610423699515E-002   0.0000000000000000     
   2.5434076521216802E-002   1.6612602570775185E-002   0.0000000000000000     
   2.9539200583672241E-002   1.9809754723471806E-002   0.0000000000000000     
   3.3544176359962152E-002   2.3211066881789384E-002   0.0000000000000000     
   3.7449003850086544E-002   2.6816539045727908E-002   0.0000000000000000     
   1.8313122175397906E-002   1.2185952458023241E-002   0.0000000000000000     
   2.2407975056831165E-002   1.5341431206106128E-002   0.0000000000000000     
   2.6370577180706317E-002   1.8649864231245802E-002   0.0000000000000000     
   3.0200928547023359E-002   2.2111251533442271E-002   0.0000000000000000     
   3.3899029155782301E-002   2.5725593112695525E-002   0.0000000000000000     
   1.5835724506783173E-002   1.0976255478130491E-002   0.0000000000000000     
   1.9731642520559724E-002   1.4210819266918416E-002   0.0000000000000000     
   2.3487479675916970E-002   1.7575719397543068E-002   0.0000000000000000     
   2.7103235972854911E-002   2.1070955870004449E-002   0.0000000000000000     
   3.0578911411373550E-002   2.4696528684302558E-002   0.0000000000000000     
   1.3796611166751654E-002   9.9905194840212638E-003   0.0000000000000000     
   1.7405078912402488E-002   1.3220766753212038E-002   0.0000000000000000     
   2.0889908069304210E-002   1.6587320222363592E-002   0.0000000000000000     
   2.4251098637456808E-002   2.0090179891475921E-002   0.0000000000000000     
   2.7488650616860295E-002   2.3729345760549025E-002   0.0000000000000000     
   1.2195782155303340E-002   9.2287444756955616E-003   0.0000000000000000     
   1.5428284232359460E-002   1.2371273664987005E-002   0.0000000000000000     
   1.8577862360868030E-002   1.5684666705707378E-002   0.0000000000000000     
   2.1644516540829058E-002   1.9168923597856682E-002   0.0000000000000000     
   2.4628246772242540E-002   2.2824044341434913E-002   0.0000000000000000     
   3.7449003850086544E-002   2.6816539045727908E-002   0.0000000000000000     
   4.1257912421473988E-002   3.0621635940422179E-002   0.0000000000000000     
   4.4975131441553066E-002   3.4621822291006979E-002   0.0000000000000000     
   4.8600660910323792E-002   3.8817098097482308E-002   0.0000000000000000     
   5.2134500827786159E-002   4.3207463359848160E-002   0.0000000000000000     
   3.3899029155782301E-002   2.5725593112695525E-002   0.0000000000000000     
   3.7487974043687769E-002   2.9521786461450816E-002   0.0000000000000000     
   4.0990858247444403E-002   3.3528729072153401E-002   0.0000000000000000     
   4.4407681767052218E-002   3.7746420944803287E-002   0.0000000000000000     
   4.7738444602511212E-002   4.2174862079400452E-002   0.0000000000000000     
   3.0578911411373550E-002   2.4696528684302558E-002   0.0000000000000000     
   3.3943875234721595E-002   2.8497020674352901E-002   0.0000000000000000     
   3.7227496686147762E-002   3.2517014674070970E-002   0.0000000000000000     
   4.0429775765652064E-002   3.6756510683456756E-002   0.0000000000000000     
   4.3550712473234478E-002   4.1215508702510256E-002   0.0000000000000000     
   2.7488650616860295E-002   2.3729345760549025E-002   0.0000000000000000     
   3.0625615994575472E-002   2.7547338579128430E-002   0.0000000000000000     
   3.3685046757663151E-002   3.1586679096759655E-002   0.0000000000000000     
   3.6666942906123316E-002   3.5847367313442700E-002   0.0000000000000000     
   3.9571304439955983E-002   4.0329403229177579E-002   0.0000000000000000     
   2.4628246772242540E-002   2.2824044341434913E-002   0.0000000000000000     
   2.7533196323249395E-002   2.6672740175777407E-002   0.0000000000000000     
   3.0363508461990540E-002   3.0737722340219487E-002   0.0000000000000000     
   3.3119183188465982E-002   3.5018990834761156E-002   0.0000000000000000     
   3.5800220502675728E-002   3.9516545659402401E-002   0.0000000000000000     
   5.2134500827786159E-002   4.3207463359848160E-002   0.0000000000000000     
   5.5574335703578406E-002   4.7797125424406478E-002   0.0000000000000000     
   5.8917850047338786E-002   5.2590291637459201E-002   0.0000000000000000     
   6.2165043859067300E-002   5.7586961999006328E-002   0.0000000000000000     
   6.5315917138763946E-002   6.2787136509047853E-002   0.0000000000000000     
   4.7738444602511212E-002   4.2174862079400452E-002   0.0000000000000000     
   5.0979273129550133E-002   4.6807326452729690E-002   0.0000000000000000     
   5.4126293723897753E-002   5.1637088041575727E-002   0.0000000000000000     
   5.7179506385554101E-002   5.6664146845938609E-002   0.0000000000000000     
   6.0138911114519134E-002   6.1888502865818290E-002   0.0000000000000000     
   4.3550712473234478E-002   4.1215508702510256E-002   0.0000000000000000     
   4.6586291222008497E-002   4.5881363763530483E-002   0.0000000000000000     
   4.9532496425087613E-002   5.0741430898816449E-002   0.0000000000000000     
   5.2389328082471806E-002   5.5795710108368111E-002   0.0000000000000000     
   5.5156786194161089E-002   6.1044201392185506E-002   0.0000000000000000     
   3.9571304439955983E-002   4.0329403229177579E-002   0.0000000000000000     
   4.2395389980953539E-002   4.5019237356808912E-002   0.0000000000000000     
   4.5136458150908366E-002   4.9903320209181333E-002   0.0000000000000000     
   4.7794508949820465E-002   5.4981651786294869E-002   0.0000000000000000     
   5.0369542377689834E-002   6.0254232088149492E-002   0.0000000000000000     
   3.5800220502675728E-002   3.9516545659402401E-002   0.0000000000000000     
   3.8406569406385239E-002   4.4220947232564922E-002   0.0000000000000000     
   4.0938178901360013E-002   4.9122755972670407E-002   0.0000000000000000     
   4.3395048987600049E-002   5.4221971879718847E-002   0.0000000000000000     
   4.5777179665105354E-002   5.9518594953710258E-002   0.0000000000000000     
   6.5315917138763946E-002   6.2787136509047853E-002   0.0000000000000000     
   6.8372476428248119E-002   6.8177805301470606E-002   0.0000000000000000     
   7.1336728269339164E-002   7.3745958510161413E-002   0.0000000000000000     
   7.4208672662037095E-002   7.9491596135120288E-002   0.0000000000000000     
   7.6988309606341898E-002   8.5414718176347215E-002   0.0000000000000000     
   6.0138911114519134E-002   6.1888502865818290E-002   0.0000000000000000     
   6.3008071568835144E-002   6.7301608993505083E-002   0.0000000000000000     
   6.5790551406544384E-002   7.2894918121289259E-002   0.0000000000000000     
   6.8486350627646866E-002   7.8668430249170834E-002   0.0000000000000000     
   7.1095469232142550E-002   8.4622145377149793E-002   0.0000000000000000     
   5.5156786194161089E-002   6.1044201392185506E-002   0.0000000000000000     
   5.7838843242539677E-002   6.6480652657935832E-002   0.0000000000000000     
   6.0439471709991748E-002   7.2098811813286326E-002   0.0000000000000000     
   6.2958671596517329E-002   7.7898678858236967E-002   0.0000000000000000     
   6.5396442902116408E-002   8.3880253792787740E-002   0.0000000000000000     
   5.0369542377689834E-002   6.0254232088149492E-002   0.0000000000000000     
   5.2864791449361695E-002   6.5714936294762855E-002   0.0000000000000000     
   5.5283489179681247E-002   7.1357639586152571E-002   0.0000000000000000     
   5.7625635568648512E-002   7.7182341962318643E-002   0.0000000000000000     
   5.9891230616263474E-002   8.3189043423261097E-002   0.0000000000000000     
   4.5777179665105354E-002   5.9518594953710258E-002   0.0000000000000000     
   4.8085916189301206E-002   6.5004459903986150E-002   0.0000000000000000     
   5.0322603815612883E-002   7.0671401439888024E-002   0.0000000000000000     
   5.2487242544040399E-002   7.6519419561415905E-002   0.0000000000000000     
   5.4579832374583755E-002   8.2548514268569767E-002   0.0000000000000000     
   7.6988309606341898E-002   8.5414718176347215E-002   0.0000000000000000     
   7.9671130666819842E-002   9.1506604139130893E-002   0.0000000000000000     
   8.2252627408037168E-002   9.7758533528760100E-002   0.0000000000000000     
   8.4732799829993891E-002  0.10417050634523480        0.0000000000000000     
   8.7111647932689995E-002  0.11074252258855496        0.0000000000000000     
   7.1095469232142550E-002   8.4622145377149793E-002   0.0000000000000000     
   7.3612937925735977E-002   9.0744904319081166E-002   0.0000000000000000     
   7.6033787414131693E-002   9.7025547888819910E-002   0.0000000000000000     
   7.8358017697329641E-002  0.10346407608636608        0.0000000000000000     
   8.0585628775329862E-002  0.11006048891171963        0.0000000000000000     
   6.5396442902116408E-002   8.3880253792787740E-002   0.0000000000000000     
   6.7747860731866130E-002   9.0030975635511726E-002   0.0000000000000000     
   7.0008000190843633E-002   9.6338283404981892E-002   0.0000000000000000     
   7.2176861279048904E-002  0.10280217710119824        0.0000000000000000     
   7.4254443996481970E-002  0.10942265672416078        0.0000000000000000     
   5.9891230616263474E-002   8.3189043423261097E-002   0.0000000000000000     
   6.2075899085210259E-002   8.9364818088422629E-002   0.0000000000000000     
   6.4175265738172990E-002   9.5696740077246045E-002   0.0000000000000000     
   6.6189330575151667E-002  0.10218480938973130        0.0000000000000000     
   6.8118093596146276E-002  0.10882902602587842        0.0000000000000000     
   5.4579832374583755E-002   8.2548514268569767E-002   0.0000000000000000     
   5.6597052985768406E-002   8.8746431677813847E-002   0.0000000000000000     
   5.8535584056119784E-002   9.5100917905612342E-002   0.0000000000000000     
   6.0395425585637930E-002  0.10161197295196525        0.0000000000000000     
   6.2176577574322808E-002  0.10827959681687258        0.0000000000000000     
   8.7111647932689995E-002  0.11074252258855496        0.0000000000000000     
   8.9396093899843543E-002  0.11745931769706520        0.0000000000000000     
   9.1593059915172678E-002  0.12430562710911004        0.0000000000000000     
   9.3702545978677304E-002  0.13128145082468948        0.0000000000000000     
   9.5724552090357518E-002  0.13838678884380351        0.0000000000000000     
   8.0585628775329862E-002  0.11006048891171963        0.0000000000000000     
   8.2725561356232713E-002  0.11680242059099348        0.0000000000000000     
   8.4786756148138590E-002  0.12367750535030050        0.0000000000000000     
   8.6769213151047464E-002  0.13068574318964071        0.0000000000000000     
   8.8672932364959337E-002  0.13782713410901409        0.0000000000000000     
   7.4254443996481970E-002  0.10942265672416078        0.0000000000000000     
   7.6250602258415026E-002  0.11618915062568515        0.0000000000000000     
   7.8175189980120352E-002  0.12309108715758699        0.0000000000000000     
   8.0028207161597920E-002  0.13012846631986627        0.0000000000000000     
   8.1809653802847770E-002  0.13730128811252301        0.0000000000000000     
   6.8118093596146276E-002  0.10882902602587842        0.0000000000000000     
   6.9971216606390482E-002  0.11561950780114021        0.0000000000000000     
   7.1758361411117980E-002  0.12254637253096944        0.0000000000000000     
   7.3479528010328740E-002  0.12960962021536612        0.0000000000000000     
   7.5134716404022778E-002  0.13680925085433027        0.0000000000000000     
   6.2176577574322808E-002  0.10827959681687258        0.0000000000000000     
   6.3887404400159095E-002  0.11509349211735867        0.0000000000000000     
   6.5536270441131445E-002  0.12204336147044792        0.0000000000000000     
   6.7123175697239856E-002  0.12912920487614030        0.0000000000000000     
   6.8648120168484345E-002  0.13635102233443586        0.0000000000000000     
   9.5724552090357518E-002  0.13838678884380351        0.0000000000000000     
   9.7655317437400274E-002  0.14561929750438699        0.0000000000000000     
   9.9491081206992626E-002  0.15297663314437468        0.0000000000000000     
  0.10123184339913457       0.16045879576376654        0.0000000000000000     
  0.10287760401382610       0.16806578536256267        0.0000000000000000     
   8.8672932364959337E-002  0.13782713410901409        0.0000000000000000     
   9.0486676253957926E-002  0.14509043318517603        0.0000000000000000     
   9.2199207282126813E-002  0.15246439549488186        0.0000000000000000     
   9.3810525449466053E-002  0.15994902103813161        0.0000000000000000     
   9.5320630755975660E-002  0.16754430981492521        0.0000000000000000     
   8.1809653802847770E-002  0.13730128811252301        0.0000000000000000     
   8.3504163523031222E-002  0.14459316576566519        0.0000000000000000     
   8.5096369941309674E-002  0.15198771250940074        0.0000000000000000     
   8.6586273057683086E-002  0.15948492834372968        0.0000000000000000     
   8.7973872872151526E-002  0.16708481326865202        0.0000000000000000     
   7.5134716404022778E-002  0.13680925085433027        0.0000000000000000     
   7.6707779244620189E-002  0.14412749524585450        0.0000000000000000     
   7.8182569184541154E-002  0.15154658418793135        0.0000000000000000     
   7.9559086223785658E-002  0.15906651768056090        0.0000000000000000     
   8.0837330362353674E-002  0.16668729572374313        0.0000000000000000     
   6.8648120168484345E-002  0.13635102233443586        0.0000000000000000     
   7.0097523418724841E-002  0.14369342162574383        0.0000000000000000     
   7.1457805011821293E-002  0.15114101053047363        0.0000000000000000     
   7.2728964947773728E-002  0.15869378904862519        0.0000000000000000     
   7.3911003226582117E-002  0.16635175718019851        0.0000000000000000     
   0.0000000000000000        0.0000000000000000        0.0000000000000000     
   2.8801816544477932E-003   1.7447527604340747E-003   0.0000000000000000     
   5.8728725651476148E-003   3.8644610931946929E-003   0.0000000000000000     
   8.9780727320994628E-003   6.3591249982818546E-003   0.0000000000000000     
   1.2195782155303340E-002   9.2287444756955616E-003   0.0000000000000000     
   0.0000000000000000        0.0000000000000000        0.0000000000000000     
   2.6104414378221069E-003   1.5888193335933491E-003   0.0000000000000000     
   5.2899432001209321E-003   3.5564814993253608E-003   0.0000000000000000     
   8.0385052868964767E-003   5.9029864971960342E-003   0.0000000000000000     
   1.0856127698148739E-002   8.6283343272053718E-003   0.0000000000000000     
   0.0000000000000000        0.0000000000000000        0.0000000000000000     
   2.3402236068628883E-003   1.4588223028950819E-003   0.0000000000000000     
   4.7203878126502435E-003   3.2995452226272245E-003   0.0000000000000000     
   7.1404926173620651E-003   5.5221687591964271E-003   0.0000000000000000     
   9.6005380209983511E-003   8.1266929126026909E-003   0.0000000000000000     
   0.0000000000000000        0.0000000000000000        0.0000000000000000     
   2.0695281615701385E-003   1.3547616683392734E-003   0.0000000000000000     
   4.1642064027355473E-003   3.0936522631002843E-003   0.0000000000000000     
   6.2840347234962273E-003   5.2166717842830317E-003   0.0000000000000000     
   8.4290131238521793E-003   7.7238202318875163E-003   0.0000000000000000     
   0.0000000000000000        0.0000000000000000        0.0000000000000000     
   1.7983551019438576E-003   1.2766374299259238E-003   0.0000000000000000     
   3.6213989703768466E-003   2.9388026207445403E-003   0.0000000000000000     
   5.4691316052989675E-003   4.9864955724558489E-003   0.0000000000000000     
   7.3415530067102198E-003   7.4197162850598514E-003   0.0000000000000000     
   1.2195782155303340E-002   9.2287444756955616E-003   0.0000000000000000     
   1.5428284232359460E-002   1.2371273664987005E-002   0.0000000000000000     
   1.8577862360868030E-002   1.5684666705707378E-002   0.0000000000000000     
   2.1644516540829058E-002   1.9168923597856682E-002   0.0000000000000000     
   2.4628246772242540E-002   2.2824044341434913E-002   0.0000000000000000     
   1.0856127698148739E-002   8.6283343272053718E-003   0.0000000000000000     
   1.3689521921168204E-002   1.1650285103911794E-002   0.0000000000000000     
   1.6485399443245351E-002   1.4886598941873722E-002   0.0000000000000000     
   1.9243760264380190E-002   1.8337275841091155E-002   0.0000000000000000     
   2.1964604384572706E-002   2.2002315801564098E-002   0.0000000000000000     
   9.6005380209983511E-003   8.1266929126026909E-003   0.0000000000000000     
   1.2077055419566295E-002   1.1045746171654897E-002   0.0000000000000000     
   1.4546576209073087E-002   1.4211957025161920E-002   0.0000000000000000     
   1.7009100389518729E-002   1.7625325473123767E-002   0.0000000000000000     
   1.9464627960903220E-002   2.1285851515540438E-002   0.0000000000000000     
   8.4290131238521793E-003   7.7238202318875163E-003   0.0000000000000000     
   1.0590884727553738E-002   1.0557656868216310E-002   0.0000000000000000     
   1.2761392658351236E-002   1.3660740955571977E-002   0.0000000000000000     
   1.4940536916244687E-002   1.7033072493954513E-002   0.0000000000000000     
   1.7128317501234072E-002   2.0674651483363927E-002   0.0000000000000000     
   7.3415530067102198E-003   7.4197162850598514E-003   0.0000000000000000     
   9.2310098451305247E-003   1.0186017193596034E-002   0.0000000000000000     
   1.1129848791079802E-002   1.3232950733103883E-002   0.0000000000000000     
   1.3038069844558051E-002   1.6560516903583400E-002   0.0000000000000000     
   1.4955673005565273E-002   2.0168715705034583E-002   0.0000000000000000     
   2.4628246772242540E-002   2.2824044341434913E-002   0.0000000000000000     
   2.7533196323249395E-002   2.6672740175777407E-002   0.0000000000000000     