 <VTKFile type="UnstructuredGrid"  version="0.1"   >
 <UnstructuredGrid>
 <Piece  NumberOfPoints="          1600 "  NumberOfCells="         1024 ">
 <Points>
 <DataArray  type="Float64" NumberOfComponents="3"  format="ascii" >
   0.0000000000000000        0.0000000000000000        0.0000000000000000     
   3.1250000000000000E-002   0.0000000000000000        0.0000000000000000     
   6.2500000000000000E-002   0.0000000000000000        0.0000000000000000     
   9.3750000000000000E-002   0.0000000000000000        0.0000000000000000     
  0.12500000000000000        0.0000000000000000        0.0000000000000000     
   0.0000000000000000        3.1250000000000000E-002   0.0000000000000000     
   3.1250000000000000E-002   3.1250000000000000E-002   0.0000000000000000     
   6.2500000000000000E-002   3.1250000000000000E-002   0.0000000000000000     
   9.3750000000000000E-002   3.1250000000000000E-002   0.0000000000000000     
  0.12500000000000000        3.1250000000000000E-002   0.0000000000000000     
   0.0000000000000000        6.2500000000000000E-002   0.0000000000000000     
   3.1250000000000000E-002   6.2500000000000000E-002   0.0000000000000000     
   6.2500000000000000E-002   6.2500000000000000E-002   0.0000000000000000     
   9.3750000000000000E-002   6.2500000000000000E-002   0.0000000000000000     
  0.12500000000000000        6.2500000000000000E-002   0.0000000000000000     
   0.0000000000000000        9.3750000000000000E-002   0.0000000000000000     
   3.1250000000000000E-002   9.3750000000000000E-002   0.0000000000000000     
   6.2500000000000000E-002   9.3750000000000000E-002   0.0000000000000000     
   9.3750000000000000E-002   9.3750000000000000E-002   0.0000000000000000     
  0.12500000000000000        9.3750000000000000E-002   0.0000000000000000     
   0.0000000000000000       0.12500000000000000        0.0000000000000000     
   3.1250000000000000E-002  0.12500000000000000        0.0000000000000000     
   6.2500000000000000E-002  0.12500000000000000        0.0000000000000000     
   9.3750000000000000E-002  0.12500000000000000        0.0000000000000000     
  0.12500000000000000       0.12500000000000000        0.0000000000000000     
  0.12500000000000000        0.0000000000000000        0.0000000000000000     
  0.15625000000000000        0.0000000000000000        0.0000000000000000     
  0.18750000000000000        0.0000000000000000        0.0000000000000000     
  0.21875000000000000        0.0000000000000000        0.0000000000000000     
  0.25000000000000000        0.0000000000000000        0.0000000000000000     
  0.12500000000000000        3.1250000000000000E-002   0.0000000000000000     
  0.15625000000000000        3.1250000000000000E-002   0.0000000000000000     
  0.18750000000000000        3.1250000000000000E-002   0.0000000000000000     
  0.21875000000000000        3.1250000000000000E-002   0.0000000000000000     
  0.25000000000000000        3.1250000000000000E-002   0.0000000000000000     
  0.12500000000000000        6.2500000000000000E-002   0.0000000000000000     
  0.15625000000000000        6.2500000000000000E-002   0.0000000000000000     
  0.18750000000000000        6.2500000000000000E-002   0.0000000000000000     
  0.21875000000000000        6.2500000000000000E-002   0.0000000000000000     
  0.25000000000000000        6.2500000000000000E-002   0.0000000000000000     
  0.12500000000000000        9.3750000000000000E-002   0.0000000000000000     
  0.15625000000000000        9.3750000000000000E-002   0.0000000000000000     
  0.18750000000000000        9.3750000000000000E-002   0.0000000000000000     
  0.21875000000000000        9.3750000000000000E-002   0.0000000000000000     
  0.25000000000000000        9.3750000000000000E-002   0.0000000000000000     
  0.12500000000000000       0.12500000000000000        0.0000000000000000     
  0.15625000000000000       0.12500000000000000        0.0000000000000000     
  0.18750000000000000       0.12500000000000000        0.0000000000000000     
  0.21875000000000000       0.12500000000000000        0.0000000000000000     
  0.25000000000000000       0.12500000000000000        0.0000000000000000     
  0.25000000000000000        0.0000000000000000        0.0000000000000000     
  0.28125000000000000        0.0000000000000000        0.0000000000000000     
  0.31250000000000000        0.0000000000000000        0.0000000000000000     
  0.34375000000000000        0.0000000000000000        0.0000000000000000     
  0.37500000000000000        0.0000000000000000        0.0000000000000000     
  0.25000000000000000        3.1250000000000000E-002   0.0000000000000000     
  0.28125000000000000        3.1250000000000000E-002   0.0000000000000000     
  0.31250000000000000        3.1250000000000000E-002   0.0000000000000000     
  0.34375000000000000        3.1250000000000000E-002   0.0000000000000000     
  0.37500000000000000        3.1250000000000000E-002   0.0000000000000000     
  0.25000000000000000        6.2500000000000000E-002   0.0000000000000000     
  0.28125000000000000        6.2500000000000000E-002   0.0000000000000000     
  0.31250000000000000        6.2500000000000000E-002   0.0000000000000000     
  0.34375000000000000        6.2500000000000000E-002   0.0000000000000000     
  0.37500000000000000        6.2500000000000000E-002   0.0000000000000000     
  0.25000000000000000        9.3750000000000000E-002   0.0000000000000000     
  0.28125000000000000        9.3750000000000000E-002   0.0000000000000000     
  0.31250000000000000        9.3750000000000000E-002   0.0000000000000000     
  0.34375000000000000        9.3750000000000000E-002   0.0000000000000000     
  0.37500000000000000        9.3750000000000000E-002   0.0000000000000000     
  0.25000000000000000       0.12500000000000000        0.0000000000000000     
  0.28125000000000000       0.12500000000000000        0.0000000000000000     
  0.31250000000000000       0.12500000000000000        0.0000000000000000     
  0.34375000000000000       0.12500000000000000        0.0000000000000000     
  0.37500000000000000       0.12500000000000000        0.0000000000000000     
  0.37500000000000000        0.0000000000000000        0.0000000000000000     
  0.40625000000000000        0.0000000000000000        0.0000000000000000     
  0.43750000000000000        0.0000000000000000        0.0000000000000000     
  0.46875000000000000        0.0000000000000000        0.0000000000000000     
  0.50000000000000000        0.0000000000000000        0.0000000000000000     
  0.37500000000000000        3.1250000000000000E-002   0.0000000000000000     
  0.40625000000000000        3.1250000000000000E-002   0.0000000000000000     
  0.43750000000000000        3.1250000000000000E-002   0.0000000000000000     
  0.46875000000000000        3.1250000000000000E-002   0.0000000000000000     
  0.50000000000000000        3.1250000000000000E-002   0.0000000000000000     
  0.37500000000000000        6.2500000000000000E-002   0.0000000000000000     
  0.40625000000000000        6.2500000000000000E-002   0.0000000000000000     
  0.43750000000000000        6.2500000000000000E-002   0.0000000000000000     
  0.46875000000000000        6.2500000000000000E-002   0.0000000000000000     
  0.50000000000000000        6.2500000000000000E-002   0.0000000000000000     
  0.37500000000000000        9.3750000000000000E-002   0.0000000000000000     
  0.40625000000000000        9.3750000000000000E-002   0.0000000000000000     
  0.43750000000000000        9.3750000000000000E-002   0.0000000000000000     
  0.46875000000000000        9.3750000000000000E-002   0.0000000000000000     
  0.50000000000000000        9.3750000000000000E-002   0.0000000000000000     
  0.37500000000000000       0.12500000000000000        0.0000000000000000     
  0.40625000000000000       0.12500000000000000        0.0000000000000000     
  0.43750000000000000       0.12500000000000000        0.0000000000000000     
  0.46875000000000000       0.12500000000000000        0.0000000000000000     
  0.50000000000000000       0.12500000000000000        0.0000000000000000     
  0.50000000000000000        0.0000000000000000        0.0000000000000000     
  0.53125000000000000        0.0000000000000000        0.0000000000000000     
  0.56250000000000000        0.0000000000000000        0.0000000000000000     
  0.59375000000000000        0.0000000000000000        0.0000000000000000     
  0.62500000000000000        0.0000000000000000        0.0000000000000000     
  0.50000000000000000        3.1250000000000000E-002   0.0000000000000000     
  0.53125000000000000        3.1250000000000000E-002   0.0000000000000000     
  0.56250000000000000        3.1250000000000000E-002   0.0000000000000000     
  0.59375000000000000        3.1250000000000000E-002   0.0000000000000000     
  0.62500000000000000        3.1250000000000000E-002   0.0000000000000000     
  0.50000000000000000        6.2500000000000000E-002   0.0000000000000000     
  0.53125000000000000        6.2500000000000000E-002   0.0000000000000000     
  0.56250000000000000        6.2500000000000000E-002   0.0000000000000000     
  0.59375000000000000        6.2500000000000000E-002   0.0000000000000000     
  0.62500000000000000        6.2500000000000000E-002   0.0000000000000000     
  0.50000000000000000        9.3750000000000000E-002   0.0000000000000000     
  0.53125000000000000        9.3750000000000000E-002   0.0000000000000000     
  0.56250000000000000        9.3750000000000000E-002   0.0000000000000000     
  0.59375000000000000        9.3750000000000000E-002   0.0000000000000000     
  0.62500000000000000        9.3750000000000000E-002   0.0000000000000000     
  0.50000000000000000       0.12500000000000000        0.0000000000000000     
  0.53125000000000000       0.12500000000000000        0.0000000000000000     
  0.56250000000000000       0.12500000000000000        0.0000000000000000     
[...]
 <PointData>
 <DataArray  type="Float64" Name="disp" NumberOfComponents="3" format="ascii">
   0.0000000000000000        0.0000000000000000        0.0000000000000000     
   6.0959491907808727E-003   3.7903125062738146E-003   0.0000000000000000     
   1.1665987602348349E-002   7.3237125026623037E-003   0.0000000000000000     
   1.6710115234702429E-002   1.0600199989165466E-002   0.0000000000000000     
   2.1228332087843110E-002   1.3619774965783305E-002   0.0000000000000000     
   0.0000000000000000        0.0000000000000000        0.0000000000000000     
   4.8911492199610641E-003   3.0220842051044295E-003   0.0000000000000000     
   9.5736291184487683E-003   6.0604688109339340E-003   0.0000000000000000     
   1.4047439695463119E-002   9.1151538174885118E-003   0.0000000000000000     
   1.8312580951004107E-002   1.2186139224768166E-002   0.0000000000000000     
   0.0000000000000000        0.0000000000000000        0.0000000000000000     
   3.9535694961894121E-003   2.4250969345110032E-003   0.0000000000000000     
   7.9106197966650315E-003   5.0628755195914763E-003   0.0000000000000000     
   1.1871150901426855E-002   7.9133357552414185E-003   0.0000000000000000     
   1.5835162810474888E-002   1.0976477641460832E-002   0.0000000000000000     
   0.0000000000000000        0.0000000000000000        0.0000000000000000     
   3.2832100194659184E-003   1.9993506944935352E-003   0.0000000000000000     
   6.6769596369971335E-003   4.3309326286349306E-003   0.0000000000000000     
   1.0181248852593644E-002   6.9947458024241871E-003   0.0000000000000000     
   1.3796077666255454E-002   9.9907902158613022E-003   0.0000000000000000     
   0.0000000000000000        0.0000000000000000        0.0000000000000000     
   2.8800707897905817E-003   1.7448454850520255E-003   0.0000000000000000     
   5.8726486394450762E-003   3.8646401380642973E-003   0.0000000000000000     
   8.9777335489634839E-003   6.3593839590368141E-003   0.0000000000000000     
   1.2195325518345804E-002   9.2290769479695771E-003   0.0000000000000000     
   2.1228332087843110E-002   1.3619774965783305E-002   0.0000000000000000     
   2.5433476716648126E-002   1.6612877426224422E-002   0.0000000000000000     
   2.9538387675995200E-002   1.9809947364197420E-002   0.0000000000000000     
   3.3543064965884335E-002   2.3210984779702307E-002   0.0000000000000000     
   3.7447508586315528E-002   2.6815989672739071E-002   0.0000000000000000     
   1.8312580951004107E-002   1.2186139224768166E-002   0.0000000000000000     
   2.2407272549918200E-002   1.5341674898916611E-002   0.0000000000000000     
   2.6369734157051853E-002   1.8650010706077570E-002   0.0000000000000000     
   3.0199965772405073E-002   2.2111146646251040E-002   0.0000000000000000     
   3.3897967395977856E-002   2.5725082719437020E-002   0.0000000000000000     
   1.5835162810474888E-002   1.0976477641460832E-002   0.0000000000000000     
   1.9730907210141164E-002   1.4211067313369571E-002   0.0000000000000000     
   2.3486635786757720E-002   1.7575870906087494E-002   0.0000000000000000     
   2.7102348540324561E-002   2.1070888419614599E-002   0.0000000000000000     
   3.0578045470841680E-002   2.4696119853950878E-002   0.0000000000000000     
   1.3796077666255454E-002   9.9907902158613022E-003   0.0000000000000000     
   1.7404380697317024E-002   1.3221054669583295E-002   0.0000000000000000     
   2.0889092565112798E-002   1.6587527964227189E-002   0.0000000000000000     
   2.4250213269642801E-002   2.0090210099792973E-002   0.0000000000000000     
   2.7487742810907011E-002   2.3729101076280658E-002   0.0000000000000000     
   1.2195325518345804E-002   9.2290769479695771E-003   0.0000000000000000     
   1.5427693011445760E-002   1.2371636967557793E-002   0.0000000000000000     
   1.8577104492117091E-002   1.5684981880496655E-002   0.0000000000000000     
   2.1643559960359784E-002   1.9169111686786169E-002   0.0000000000000000     
   2.4627059416173845E-002   2.2824026386426340E-002   0.0000000000000000     
   3.7447508586315528E-002   2.6815989672739071E-002   0.0000000000000000     
   4.1256213213227359E-002   3.0620689759714055E-002   0.0000000000000000     
   4.4973673522558398E-002   3.4620812757033589E-002   0.0000000000000000     
   4.8599889514308645E-002   3.8816358664697681E-002   0.0000000000000000     
   5.2134861188478106E-002   4.3207327482706323E-002   0.0000000000000000     
   3.3897967395977856E-002   2.5725082719437020E-002   0.0000000000000000     
   3.7486855879809447E-002   2.9520924182296834E-002   0.0000000000000000     
   4.0989748075939123E-002   3.3527776291491805E-002   0.0000000000000000     
   4.4406643984366861E-002   3.7745639047021932E-002   0.0000000000000000     
   4.7737543605092678E-002   4.2174512448887216E-002   0.0000000000000000     
   3.0578045470841680E-002   2.4696119853950878E-002   0.0000000000000000     
   3.3942987960959931E-002   2.8496310033621131E-002   0.0000000000000000     
   3.7226437393330161E-002   3.2516203783150142E-002   0.0000000000000000     
   4.0428393767952368E-002   3.6755801102537899E-002   0.0000000000000000     
   4.3548857084826559E-002   4.1215101991784416E-002   0.0000000000000000     
   2.7487742810907011E-002   2.3729101076280658E-002   0.0000000000000000     
   3.0624609456678799E-002   2.7546847313686954E-002   0.0000000000000000     
   3.3683741474731521E-002   3.1586095232008594E-002   0.0000000000000000     
   3.6665138865065172E-002   3.5846844831245582E-002   0.0000000000000000     
   3.9568801627679770E-002   4.0329096111397900E-002   0.0000000000000000     
   2.4627059416173845E-002   2.2824026386426340E-002   0.0000000000000000     
   2.7531720366966057E-002   2.6672536022494291E-002   0.0000000000000000     
   3.0361660320143202E-002   3.0737450638067172E-002   0.0000000000000000     
   3.3116879275705280E-002   3.5018770233144966E-002   0.0000000000000000     
   3.5797377233652283E-002   3.9516494807727690E-002   0.0000000000000000     
   5.2134861188478106E-002   4.3207327482706323E-002   0.0000000000000000     
   5.5575330845123422E-002   4.7797547090280633E-002   0.0000000000000000     
   5.8918040784301254E-002   5.2590845366641749E-002   0.0000000000000000     
   6.2162991006011588E-002   5.7587222311789650E-002   0.0000000000000000     
   6.5310181510254445E-002   6.2786677925724357E-002   0.0000000000000000     
   4.7737543605092678E-002   4.2174512448887216E-002   0.0000000000000000     
   5.0978623472810444E-002   4.6807361109940576E-002   0.0000000000000000     
   5.4126060122214048E-002   5.1637149643034959E-002   0.0000000000000000     
   5.7179853553303496E-002   5.6663878048170351E-002   0.0000000000000000     
   6.0140003766078760E-002   6.1887546325346751E-002   0.0000000000000000     
   4.3548857084826559E-002   4.1215101991784416E-002   0.0000000000000000     
   4.6584366206598359E-002   4.5881208653455477E-002   0.0000000000000000     
   4.9531459995913386E-002   5.0741223290116898E-002   0.0000000000000000     
   5.2390138452771649E-002   5.5795145901768699E-002   0.0000000000000000     
   5.5160401577173161E-002   6.1042976488410866E-002   0.0000000000000000     
   3.9568801627679770E-002   4.0329096111397900E-002   0.0000000000000000     
   4.2392559046487185E-002   4.5019089720825321E-002   0.0000000000000000     
   4.5134240405399283E-002   4.9903066307887579E-002   0.0000000000000000     
   4.7793845704416103E-002   5.4981025872584709E-002   0.0000000000000000     
   5.0371374943537627E-002   6.0252968414916661E-002   0.0000000000000000     
   3.5797377233652283E-002   3.9516494807727690E-002   0.0000000000000000     
   3.8403201992476876E-002   4.4221004312050102E-002   0.0000000000000000     
   4.0934401350671730E-002   4.9122678696346990E-002   0.0000000000000000     
   4.3390975308236816E-002   5.4221517960618332E-002   0.0000000000000000     
   4.5772923865172156E-002   5.9517522104864162E-002   0.0000000000000000     
   6.5310181510254445E-002   6.2786677925724357E-002   0.0000000000000000     
   6.8363336857740903E-002   6.8176868545117161E-002   0.0000000000000000     
   7.1326181609182068E-002   7.3745450506639346E-002   0.0000000000000000     
   7.4198715764577927E-002   7.9492423810290938E-002   0.0000000000000000     
   7.6980939323928507E-002   8.5417788456071939E-002   0.0000000000000000     
   6.0140003766078760E-002   6.1887546325346751E-002   0.0000000000000000     
   6.3010046054841826E-002   6.7300140683771659E-002   0.0000000000000000     
   6.5793515713894593E-002   7.2893647332652536E-002   0.0000000000000000     
   6.8490412743237070E-002   7.8668066271989370E-002   0.0000000000000000     
   7.1100737142869269E-002   8.4623397501782160E-002   0.0000000000000000     
   5.5160401577173161E-002   6.1042976488410866E-002   0.0000000000000000     
   5.7845297997005017E-002   6.6478913286077468E-002   0.0000000000000000     
   6.0447876340154374E-002   7.2097154530802579E-002   0.0000000000000000     
   6.2968136606621219E-002   7.7897700222586228E-002   0.0000000000000000     
   6.5406078796405573E-002   8.3880550361428385E-002   0.0000000000000000     
   5.0371374943537627E-002   6.0252968414916661E-002   0.0000000000000000     
   5.2869092684230505E-002   6.5713186352034589E-002   0.0000000000000000     
   5.5289263487961440E-002   7.1355972101089557E-002   0.0000000000000000     
   5.7631887354730391E-002   7.7181325662081565E-002   0.0000000000000000     
   5.9896964284537391E-002   8.3189247035010655E-002   0.0000000000000000     
   4.5772923865172156E-002   5.9517522104864162E-002   0.0000000000000000     
   4.8081430116518283E-002   6.5002959881643008E-002   0.0000000000000000     
   5.0317677157315763E-002   7.0670100043513415E-002   0.0000000000000000     
   5.2481664987564583E-002   7.6518942590475397E-002   0.0000000000000000     
   5.4573393607264750E-002   8.2549487522528942E-002   0.0000000000000000     
   7.6980939323928507E-002   8.5417788456071939E-002   0.0000000000000000     
   7.9666069778908111E-002   9.1511139161919428E-002   0.0000000000000000     
   8.2247324621191054E-002   9.7762070645770457E-002   0.0000000000000000     
   8.4724703850777350E-002  0.10417058290762508        0.0000000000000000     
   8.7098207467666972E-002  0.11073667594748328        0.0000000000000000     
   7.1100737142869269E-002   8.4623397501782160E-002   0.0000000000000000     
   7.3618943169209222E-002   9.0747159670058433E-002   0.0000000000000000     
   7.6039485078674918E-002   9.7026871424845632E-002   0.0000000000000000     
   7.8362362871266383E-002  0.10346253276614380        0.0000000000000000     
   8.0587576546983619E-002  0.11005414369395290        0.0000000000000000     
   6.5406078796405573E-002   8.3880550361428385E-002   0.0000000000000000     
   6.7757142475600662E-002   9.0032023677184214E-002   0.0000000000000000     
   7.0016767210299813E-002   9.6338438899708848E-002   0.0000000000000000     
   7.2184953000502983E-002  0.10279979602900226        0.0000000000000000     
   7.4261699846210186E-002  0.10941609506506447        0.0000000000000000     
   5.9896964284537391E-002   8.3189247035010655E-002   0.0000000000000000     
   6.2080667698082494E-002   8.9365731183296826E-002   0.0000000000000000     
   6.4179171016065725E-002   9.5696773070360105E-002   0.0000000000000000     
   6.6192474238487148E-002  0.10218237269620051        0.0000000000000000     
   6.8120577365346713E-002  0.10882253006081800        0.0000000000000000     
   5.4573393607264750E-002   8.2549487522528942E-002   0.0000000000000000     
   5.6589518836654654E-002   8.8748282188396241E-002   0.0000000000000000     
   5.8526696495972697E-002   9.5101873936799419E-002   0.0000000000000000     
   6.0384926585218858E-002  0.10161026276773849        0.0000000000000000     
   6.2164209104393166E-002  0.10827344868121348        0.0000000000000000     
   8.7098207467666972E-002  0.11073667594748328        0.0000000000000000     
   8.9376814990511408E-002  0.11744903390368933        0.0000000000000000     
   9.1569505937962092E-002  0.12429634091458749        0.0000000000000000     
   9.3676280310019011E-002  0.13127859698017783        0.0000000000000000     
   9.5697138106682150E-002  0.13839580210046026        0.0000000000000000     
   8.0587576546983619E-002  0.11005414369395290        0.0000000000000000     
   8.2725757407964215E-002  0.11679215386013800        0.0000000000000000     
   8.4787536756345760E-002  0.12366701291656412        0.0000000000000000     
   8.6772914592128284E-002  0.13067872086323129        0.0000000000000000     
   8.8681890915311784E-002  0.13782727770013947        0.0000000000000000     
   7.4261699846210186E-002  0.10941609506506447        0.0000000000000000     
   7.6258181631724389E-002  0.11617893378366896        0.0000000000000000     
   7.8185572241348561E-002  0.12307990996058919        0.0000000000000000     
   8.0043871675082687E-002  0.13011902359582520        0.0000000000000000     
   8.1833079932926794E-002  0.13729627468937694        0.0000000000000000     
   6.8120577365346713E-002  0.10882253006081800        0.0000000000000000     
   6.9974087661791959E-002  0.11560937367428221        0.0000000000000000     
   7.1763612392970466E-002  0.12253503204666273        0.0000000000000000     
   7.3489151558882207E-002  0.12959950517795960        0.0000000000000000     
   7.5150705159527209E-002  0.13680279306817272        0.0000000000000000     
   6.2164209104393166E-002  0.10827344868121348        0.0000000000000000     
   6.3873475498166923E-002  0.11508347353197776        0.0000000000000000     
   6.5521657211211490E-002  0.12203237917478474        0.0000000000000000     
   6.7108754243526858E-002  0.12912016560963441        0.0000000000000000     
   6.8634766595113000E-002  0.13634683283652679        0.0000000000000000     
   9.5697138106682150E-002  0.13839580210046026        0.0000000000000000     
   9.7626969598868241E-002  0.14563515720455794        0.0000000000000000     
   9.9460665057493972E-002  0.15298386322159396        0.0000000000000000     
  0.10119822448255933       0.16044192015156833        0.0000000000000000     
  0.10283964787406431       0.16800932799448101        0.0000000000000000     
   8.8681890915311784E-002  0.13782727770013947        0.0000000000000000     
   9.0501596908913615E-002  0.14509707711257883        0.0000000000000000     
   9.2219163755951142E-002  0.15247251278583945        0.0000000000000000     
   9.3834591456424393E-002  0.15995358471992135        0.0000000000000000     
   9.5347880010333341E-002  0.16754029291482456        0.0000000000000000     
   8.1833079932926794E-002  0.13729627468937694        0.0000000000000000     
   8.3536253912433300E-002  0.14459423894946338        0.0000000000000000     
   8.5136450511154621E-002  0.15199549208430341        0.0000000000000000     
   8.6633669729090770E-002  0.15950003409389701        0.0000000000000000     
   8.8027911566241776E-002  0.16710786497824423        0.0000000000000000     
   7.5150705159527209E-002  0.13680279306817272        0.0000000000000000     
   7.6730940609427312E-002  0.14412664271521164        0.0000000000000000     
   7.8212525323104409E-002  0.15155280111698585        0.0000000000000000     
   7.9595459300558530E-002  0.15908126827349531        0.0000000000000000     
   8.0879742541789632E-002  0.16671204418474000        0.0000000000000000     
   6.8634766595113000E-002  0.13634683283652679        0.0000000000000000     
   7.0085656999895662E-002  0.14369428840982365        0.0000000000000000     
   7.1447388191800520E-002  0.15114443988388679        0.0000000000000000     
   7.2719960170827616E-002  0.15869728725871621        0.0000000000000000     
   7.3903372936976894E-002  0.16635283053431194        0.0000000000000000     
   0.0000000000000000        0.0000000000000000        0.0000000000000000     
   2.8800707897905817E-003   1.7448454850520255E-003   0.0000000000000000     
   5.8726486394450762E-003   3.8646401380642973E-003   0.0000000000000000     
   8.9777335489634839E-003   6.3593839590368141E-003   0.0000000000000000     
   1.2195325518345804E-002   9.2290769479695771E-003   0.0000000000000000     
   0.0000000000000000        0.0000000000000000        0.0000000000000000     
   2.6103159499368269E-003   1.5889314922300163E-003   0.0000000000000000     
   5.2897156143492715E-003   3.5566973252332337E-003   0.0000000000000000     
   8.0381989932373325E-003   5.9032974990096505E-003   0.0000000000000000     
   1.0855766086601009E-002   8.6287320135592684E-003   0.0000000000000000     
   0.0000000000000000        0.0000000000000000        0.0000000000000000     
   2.3401096426780787E-003   1.4589589020710505E-003   0.0000000000000000     
   4.7201893720501282E-003   3.2998034674953975E-003   0.0000000000000000     
   7.1402391881161499E-003   5.5225336962730397E-003   0.0000000000000000     
   9.6002590908761433E-003   8.1271495884039802E-003   0.0000000000000000     
   0.0000000000000000        0.0000000000000000        0.0000000000000000     
   2.0694518680143366E-003   1.3549277145751275E-003   0.0000000000000000     
   4.1640699125476488E-003   3.0939585648507894E-003   0.0000000000000000     
   6.2838541335999394E-003   5.2170925508269869E-003   0.0000000000000000     
   8.4288045311712041E-003   7.7243296725037170E-003   0.0000000000000000     
   0.0000000000000000        0.0000000000000000        0.0000000000000000     
   1.7983426259456006E-003   1.2768379297422475E-003   0.0000000000000000     
   3.6213572358418326E-003   2.9391626172994099E-003   0.0000000000000000     
   5.4690438296886969E-003   4.9869740626714868E-003   0.0000000000000000     
   7.3414024074861927E-003   7.4202722658584788E-003   0.0000000000000000     
   1.2195325518345804E-002   9.2290769479695771E-003   0.0000000000000000     
   1.5427693011445760E-002   1.2371636967557793E-002   0.0000000000000000     
   1.8577104492117091E-002   1.5684981880496655E-002   0.0000000000000000     
   2.1643559960359784E-002   1.9169111686786169E-002   0.0000000000000000     
   2.4627059416173845E-002   2.2824026386426340E-002   0.0000000000000000     
   1.0855766086601009E-002   8.6287320135592684E-003   0.0000000000000000     
   1.3689059737181521E-002   1.1650734543271811E-002   0.0000000000000000     
   1.6484722787720073E-002   1.4887038762537011E-002   0.0000000000000000     
   1.9242755238216679E-002   1.8337644671354864E-002   0.0000000000000000     
   2.1963157088671321E-002   2.2002552269725376E-002   0.0000000000000000     
   9.6002590908761433E-003   8.1271495884039802E-003   0.0000000000000000     
   1.2076696459178403E-002   1.1046267732704122E-002   0.0000000000000000     
   1.4545998671871230E-002   1.4212504717989372E-002   0.0000000000000000     
   1.7008165728954621E-002   1.7625860544259735E-002   0.0000000000000000     
   1.9463197630428572E-002   2.1286335211515205E-002   0.0000000000000000     
   8.4288045311712041E-003   7.7243296725037170E-003   0.0000000000000000     
   1.0590603177436422E-002   1.0558236535854722E-002   0.0000000000000000     
   1.2760932144570558E-002   1.3661379746853743E-002   0.0000000000000000     
   1.4939791432573622E-002   1.7033759305500776E-002   0.0000000000000000     
   1.7127181041445602E-002   2.0675375211795823E-002   0.0000000000000000     
   7.3414024074861927E-003   7.4202722658584788E-003   0.0000000000000000     
   9.2307798919555664E-003   1.0186640952723612E-002   0.0000000000000000     
   1.1129523205818059E-002   1.3233663849130118E-002   0.0000000000000000     
   1.3037632349073673E-002   1.6561340955077990E-002   0.0000000000000000     
   1.4955107321722410E-002   2.0169672270567235E-002   0.0000000000000000     
   2.4627059416173845E-002   2.2824026386426340E-002   0.0000000000000000     
   2.7531720366966057E-002   2.6672536022494291E-002   0.0000000000000000     