 <VTKFile type="UnstructuredGrid"  version="0.1"   >
 <UnstructuredGrid>
 <Piece  NumberOfPoints="          1600 "  NumberOfCells="         1024 ">
 <Points>
 <DataArray  type="Float64" NumberOfComponents="3"  format="ascii" >
   0.0000000000000000        0.0000000000000000        0.0000000000000000     
   3.1250000000000000E-002   0.0000000000000000        0.0000000000000000     
   6.2500000000000000E-002   0.0000000000000000        0.0000000000000000     
   9.3750000000000000E-002   0.0000000000000000        0.0000000000000000     
  0.12500000000000000        0.0000000000000000        0.0000000000000000     
   0.0000000000000000        3.1250000000000000E-002   0.0000000000000000     
   3.1250000000000000E-002   3.1250000000000000E-002   0.0000000000000000     
   6.2500000000000000E-002   3.1250000000000000E-002   0.0000000000000000     
   9.3750000000000000E-002   3.1250000000000000E-002   0.0000000000000000     
  0.12500000000000000        3.1250000000000000E-002   0.0000000000000000     
   0.0000000000000000        6.2500000000000000E-002   0.0000000000000000     
   3.1250000000000000E-002   6.2500000000000000E-002   0.0000000000000000     
   6.2500000000000000E-002   6.2500000000000000E-002   0.0000000000000000     
   9.3750000000000000E-002   6.2500000000000000E-002   0.0000000000000000     
  0.12500000000000000        6.2500000000000000E-002   0.0000000000000000     
   0.0000000000000000        9.3750000000000000E-002   0.0000000000000000     
   3.1250000000000000E-002   9.3750000000000000E-002   0.0000000000000000     
   6.2500000000000000E-002   9.3750000000000000E-002   0.0000000000000000     
   9.3750000000000000E-002   9.3750000000000000E-002   0.0000000000000000     
  0.12500000000000000        9.3750000000000000E-002   0.0000000000000000     
   0.0000000000000000       0.12500000000000000        0.0000000000000000     
   3.1250000000000000E-002  0.12500000000000000        0.0000000000000000     
   6.2500000000000000E-002  0.12500000000000000        0.0000000000000000     
   9.3750000000000000E-002  0.12500000000000000        0.0000000000000000     
  0.12500000000000000       0.12500000000000000        0.0000000000000000     
  0.12500000000000000        0.0000000000000000        0.0000000000000000     
  0.15625000000000000        0.0000000000000000        0.0000000000000000     
  0.18750000000000000        0.0000000000000000        0.0000000000000000     
  0.21875000000000000        0.0000000000000000        0.0000000000000000     
  0.25000000000000000        0.0000000000000000        0.0000000000000000     
  0.12500000000000000        3.1250000000000000E-002   0.0000000000000000     
  0.15625000000000000        3.1250000000000000E-002   0.0000000000000000     
  0.18750000000000000        3.1250000000000000E-002   0.0000000000000000     
  0.21875000000000000        3.1250000000000000E-002   0.0000000000000000     
  0.25000000000000000        3.1250000000000000E-002   0.0000000000000000     
  0.12500000000000000        6.2500000000000000E-002   0.0000000000000000     
  0.15625000000000000        6.2500000000000000E-002   0.0000000000000000     
  0.18750000000000000        6.2500000000000000E-002   0.0000000000000000     
  0.21875000000000000        6.2500000000000000E-002   0.0000000000000000     
  0.25000000000000000        6.2500000000000000E-002   0.0000000000000000     
  0.12500000000000000        9.3750000000000000E-002   0.0000000000000000     
  0.15625000000000000        9.3750000000000000E-002   0.0000000000000000     
  0.18750000000000000        9.3750000000000000E-002   0.0000000000000000     
  0.21875000000000000        9.3750000000000000E-002   0.0000000000000000     
  0.25000000000000000        9.3750000000000000E-002   0.0000000000000000     
  0.12500000000000000       0.12500000000000000        0.0000000000000000     
  0.15625000000000000       0.12500000000000000        0.0000000000000000     
  0.18750000000000000       0.12500000000000000        0.0000000000000000     
  0.21875000000000000       0.12500000000000000        0.0000000000000000     
  0.25000000000000000       0.12500000000000000        0.0000000000000000     
  0.25000000000000000        0.0000000000000000        0.0000000000000000     
  0.28125000000000000        0.0000000000000000        0.0000000000000000     
  0.31250000000000000        0.0000000000000000        0.0000000000000000     
  0.34375000000000000        0.0000000000000000        0.0000000000000000     
  0.37500000000000000        0.0000000000000000        0.0000000000000000     
  0.25000000000000000        3.1250000000000000E-002   0.0000000000000000     
  0.28125000000000000        3.1250000000000000E-002   0.0000000000000000     
  0.31250000000000000        3.1250000000000000E-002   0.0000000000000000     
  0.34375000000000000        3.1250000000000000E-002   0.0000000000000000     
  0.37500000000000000        3.1250000000000000E-002   0.0000000000000000     
  0.25000000000000000        6.2500000000000000E-002   0.0000000000000000     
  0.28125000000000000        6.2500000000000000E-002   0.0000000000000000     
  0.31250000000000000        6.2500000000000000E-002   0.0000000000000000     
  0.34375000000000000        6.2500000000000000E-002   0.0000000000000000     
  0.37500000000000000        6.2500000000000000E-002   0.0000000000000000     
  0.25000000000000000        9.3750000000000000E-002   0.0000000000000000     
  0.28125000000000000        9.3750000000000000E-002   0.0000000000000000     
  0.31250000000000000        9.3750000000000000E-002   0.0000000000000000     
  0.34375000000000000        9.3750000000000000E-002   0.0000000000000000     
  0.37500000000000000        9.3750000000000000E-002   0.0000000000000000     
  0.25000000000000000       0.12500000000000000        0.0000000000000000     
  0.28125000000000000       0.12500000000000000        0.0000000000000000     
  0.31250000000000000       0.12500000000000000        0.0000000000000000     
  0.34375000000000000       0.12500000000000000        0.0000000000000000     
  0.37500000000000000       0.12500000000000000        0.0000000000000000     
  0.37500000000000000        0.0000000000000000        0.0000000000000000     
  0.40625000000000000        0.0000000000000000        0.0000000000000000     
  0.43750000000000000        0.0000000000000000        0.0000000000000000     
  0.46875000000000000        0.0000000000000000        0.0000000000000000     
  0.50000000000000000        0.0000000000000000        0.0000000000000000     
  0.37500000000000000        3.1250000000000000E-002   0.0000000000000000     
  0.40625000000000000        3.1250000000000000E-002   0.0000000000000000     
  0.43750000000000000        3.1250000000000000E-002   0.0000000000000000     
  0.46875000000000000        3.1250000000000000E-002   0.0000000000000000     
  0.50000000000000000        3.1250000000000000E-002   0.0000000000000000     
  0.37500000000000000        6.2500000000000000E-002   0.0000000000000000     
  0.40625000000000000        6.2500000000000000E-002   0.0000000000000000     
  0.43750000000000000        6.2500000000000000E-002   0.0000000000000000     
  0.46875000000000000        6.2500000000000000E-002   0.0000000000000000     
  0.50000000000000000        6.2500000000000000E-002   0.0000000000000000     
  0.37500000000000000        9.3750000000000000E-002   0.0000000000000000     
  0.40625000000000000        9.3750000000000000E-002   0.0000000000000000     
  0.43750000000000000        9.3750000000000000E-002   0.0000000000000000     
  0.46875000000000000        9.3750000000000000E-002   0.0000000000000000     
  0.50000000000000000        9.3750000000000000E-002   0.0000000000000000     
  0.37500000000000000       0.12500000000000000        0.0000000000000000     
  0.40625000000000000       0.12500000000000000        0.0000000000000000     
  0.43750000000000000       0.12500000000000000        0.0000000000000000     
  0.46875000000000000       0.12500000000000000        0.0000000000000000     
  0.50000000000000000       0.12500000000000000        0.0000000000000000     
  0.50000000000000000        0.0000000000000000        0.0000000000000000     
  0.53125000000000000        0.0000000000000000        0.0000000000000000     
  0.56250000000000000        0.0000000000000000        0.0000000000000000     
  0.59375000000000000        0.0000000000000000        0.0000000000000000     
  0.62500000000000000        0.0000000000000000        0.0000000000000000     
  0.50000000000000000        3.1250000000000000E-002   0.0000000000000000     
  0.53125000000000000        3.1250000000000000E-002   0.0000000000000000     
  0.56250000000000000        3.1250000000000000E-002   0.0000000000000000     
  0.59375000000000000        3.1250000000000000E-002   0.0000000000000000     
  0.62500000000000000        3.1250000000000000E-002   0.0000000000000000     
  0.50000000000000000        6.2500000000000000E-002   0.0000000000000000     
  0.53125000000000000        6.2500000000000000E-002   0.0000000000000000     
  0.56250000000000000        6.2500000000000000E-002   0.0000000000000000     
  0.59375000000000000        6.2500000000000000E-002   0.0000000000000000     
  0.62500000000000000        6.2500000000000000E-002   0.0000000000000000     
  0.50000000000000000        9.3750000000000000E-002   0.0000000000000000     
  0.53125000000000000        9.3750000000000000E-002   0.0000000000000000     
  0.56250000000000000        9.3750000000000000E-002   0.0000000000000000     
  0.59375000000000000        9.3750000000000000E-002   0.0000000000000000     
  0.62500000000000000        9.3750000000000000E-002   0.0000000000000000     
  0.50000000000000000       0.12500000000000000        0.0000000000000000     
  0.53125000000000000       0.12500000000000000        0.0000000000000000     
  0.56250000000000000       0.12500000000000000        0.0000000000000000     
[...]
 <PointData>
 <DataArray  type="Float64" Name="disp" NumberOfComponents="3" format="ascii">
   0.0000000000000000        0.0000000000000000        0.0000000000000000     
   6.0959886676226222E-003   3.7904868992431318E-003   0.0000000000000000     
   1.1666016262062762E-002   7.3239437454173124E-003   0.0000000000000000     
   1.6710082783320417E-002   1.0600370538522544E-002   0.0000000000000000     
   2.1228188231395589E-002   1.3619767278558821E-002   0.0000000000000000     
   0.0000000000000000        0.0000000000000000        0.0000000000000000     
   4.8911671755320473E-003   3.0221949972796544E-003   0.0000000000000000     
   9.5736310150950597E-003   6.0606341428817408E-003   0.0000000000000000     
   1.4047391518689037E-002   9.1153174368062591E-003   0.0000000000000000     
   1.8312448686313980E-002   1.2186244879053211E-002   0.0000000000000000     
   0.0000000000000000        0.0000000000000000        0.0000000000000000     
   3.9535753497262575E-003   2.4251642861357219E-003   0.0000000000000000     
   7.9106101211617232E-003   5.0629939528008773E-003   0.0000000000000000     
   1.1871104314306396E-002   7.9134889999954664E-003   0.0000000000000000     
   1.5835057929160276E-002   1.0976649427719488E-002   0.0000000000000000     
   0.0000000000000000        0.0000000000000000        0.0000000000000000     
   3.2832131902052536E-003   1.9993947658113352E-003   0.0000000000000000     
   6.6769535802627521E-003   4.3310231751747226E-003   0.0000000000000000     
   1.0181221170172493E-002   6.9948852280901632E-003   0.0000000000000000     
   1.3796015959934479E-002   9.9909809245576579E-003   0.0000000000000000     
   0.0000000000000000        0.0000000000000000        0.0000000000000000     
   2.8800806969690360E-003   1.7448864363064931E-003   0.0000000000000000     
   5.8726613923981465E-003   3.8647218100032769E-003   0.0000000000000000     
   8.9777420862873301E-003   6.3595061210903504E-003   0.0000000000000000     
   1.2195322778636589E-002   9.2292393695677134E-003   0.0000000000000000     
   2.1228188231395589E-002   1.3619767278558821E-002   0.0000000000000000     
   2.5433228729210503E-002   1.6612767930362565E-002   0.0000000000000000     
   2.9538100399687389E-002   1.9810006458770197E-002   0.0000000000000000     
   3.3542803242826248E-002   2.3211482863781701E-002   0.0000000000000000     
   3.7447337258627075E-002   2.6817197145397098E-002   0.0000000000000000     
   1.8312448686313980E-002   1.2186244879053211E-002   0.0000000000000000     
   2.2407048431666882E-002   1.5341774899310138E-002   0.0000000000000000     
   2.6369436668444733E-002   1.8650265927264580E-002   0.0000000000000000     
   3.0199613396647541E-002   2.2111717962916548E-002   0.0000000000000000     
   3.3897578616275299E-002   2.5726131006266029E-002   0.0000000000000000     
   1.5835057929160276E-002   1.0976649427719488E-002   0.0000000000000000     
   1.9730732859421455E-002   1.4211291136050694E-002   0.0000000000000000     
   2.3486390998788027E-002   1.7576230025066836E-002   0.0000000000000000     
   2.7102032347259997E-002   2.1071466094767909E-002   0.0000000000000000     
   3.0577656904837349E-002   2.4696999345153924E-002   0.0000000000000000     
   1.3796015959934479E-002   9.9909809245576579E-003   0.0000000000000000     
   1.7404282012474230E-002   1.3221316640584240E-002   0.0000000000000000     
   2.0888963390717268E-002   1.6587898752176960E-002   0.0000000000000000     
   2.4250060094663611E-002   2.0090727259335809E-002   0.0000000000000000     
   2.7487572124313232E-002   2.3729802162060786E-002   0.0000000000000000     
   1.2195322778636589E-002   9.2292393695677134E-003   0.0000000000000000     
   1.5427695890825207E-002   1.2371851412910776E-002   0.0000000000000000     
   1.8577153844232471E-002   1.5685272108594949E-002   0.0000000000000000     
   2.1643696638858383E-002   1.9169501456620226E-002   0.0000000000000000     
   2.4627324274702940E-002   2.2824539456986617E-002   0.0000000000000000     
   3.7447337258627075E-002   2.6817197145397098E-002   0.0000000000000000     
   4.1255869122115693E-002   3.0622367154828044E-002   0.0000000000000000     
   4.4972565508317901E-002   3.4622210743286218E-002   0.0000000000000000     
   4.8597426417233719E-002   3.8816727910771620E-002   0.0000000000000000     
   5.2130451848863127E-002   4.3205918657284237E-002   0.0000000000000000     
   3.3897578616275299E-002   2.5726131006266029E-002   0.0000000000000000     
   3.7486292598630830E-002   2.9522308283092279E-002   0.0000000000000000     
   4.0988715615016949E-002   3.3529053019174561E-002   0.0000000000000000     
   4.4404847665433650E-002   3.7746365214512884E-002   0.0000000000000000     
   4.7734688749880939E-002   4.2174244869107223E-002   0.0000000000000000     
   3.0577656904837349E-002   2.4696999345153924E-002   0.0000000000000000     
   3.3942483653687287E-002   2.8497414687947323E-002   0.0000000000000000     
   3.7225731575976986E-002   3.2517297034870565E-002   0.0000000000000000     
   4.0427400671706436E-002   3.6756646385923665E-002   0.0000000000000000     
   4.3547490940875649E-002   4.1215462741106608E-002   0.0000000000000000     
   2.7487572124313232E-002   2.3729802162060786E-002   0.0000000000000000     
   3.0624442287285059E-002   2.7547686369393167E-002   0.0000000000000000     
   3.3683613391198006E-002   3.1586942790374231E-002   0.0000000000000000     
   3.6665085436052076E-002   3.5847571425003971E-002   0.0000000000000000     
   3.9568858421847243E-002   4.0329572273282398E-002   0.0000000000000000     
   2.4627324274702940E-002   2.2824539456986617E-002   0.0000000000000000     
   2.7532168499424151E-002   2.6673123327429823E-002   0.0000000000000000     
   3.0362361060680021E-002   3.0737990285685548E-002   0.0000000000000000     
   3.3117901958470551E-002   3.5019140331753788E-002   0.0000000000000000     
   3.5798791192795734E-002   3.9516573465634565E-002   0.0000000000000000     
   5.2130451848863127E-002   4.3205918657284237E-002   0.0000000000000000     
   5.5569498228457234E-002   4.7794964756804351E-002   0.0000000000000000     
   5.8912421981267150E-002   5.2589047983312202E-002   0.0000000000000000     
   6.2159223107292882E-002   5.7588168336807820E-002   0.0000000000000000     
   6.5309901606534410E-002   6.2792325817291161E-002   0.0000000000000000     
   4.7734688749880939E-002   4.2174244869107223E-002   0.0000000000000000     
   5.0974728883811285E-002   4.6806249308098458E-002   0.0000000000000000     
   5.4121458082677154E-002   5.1635935856627416E-002   0.0000000000000000     
   5.7174876346478533E-002   5.6663304514694118E-002   0.0000000000000000     
   6.0134983675215442E-002   6.1888355282298552E-002   0.0000000000000000     
   4.3547490940875649E-002   4.1215462741106608E-002   0.0000000000000000     
   4.6582405449661565E-002   4.5880956194953110E-002   0.0000000000000000     
   4.9528547264241114E-002   5.0740336841996865E-002   0.0000000000000000     
   5.2385916384614289E-002   5.5793604682237867E-002   0.0000000000000000     
   5.5154512810781091E-002   6.1040759715676143E-002   0.0000000000000000     
   3.9568858421847243E-002   4.0329572273282398E-002   0.0000000000000000     
   4.2392527926008061E-002   4.5019085417368314E-002   0.0000000000000000     
   4.5133689525959017E-002   4.9902250939420544E-002   0.0000000000000000     
   4.7792343221700118E-002   5.4979068839439087E-002   0.0000000000000000     
   5.0368489013231363E-002   6.0249539117423964E-002   0.0000000000000000     
   3.5798791192795734E-002   3.9516573465634565E-002   0.0000000000000000     
   3.8405096312850787E-002   4.4220636975344063E-002   0.0000000000000000     
   4.0936884867830883E-002   4.9121678148898451E-002   0.0000000000000000     
   4.3394156857736052E-002   5.4219696986297763E-002   0.0000000000000000     
   4.5776912282566265E-002   5.9514693487541979E-002   0.0000000000000000     
   6.5309901606534410E-002   6.2792325817291161E-002   0.0000000000000000     
   6.8365876070346498E-002   6.8187531854397618E-002   0.0000000000000000     
   7.1328565090083923E-002   7.3759797877762531E-002   0.0000000000000000     
   7.4197968665746655E-002   7.9509123887385902E-002   0.0000000000000000     
   7.6974086797334723E-002   8.5435509883267702E-002   0.0000000000000000     
   6.0134983675215442E-002   6.1888355282298552E-002   0.0000000000000000     
   6.3004328412121058E-002   6.7302455352520760E-002   0.0000000000000000     
   6.5785458900428584E-002   7.2896971918440800E-002   0.0000000000000000     
   6.8478375140138034E-002   7.8671904980058674E-002   0.0000000000000000     
   7.1083077131249395E-002   8.4627254537374394E-002   0.0000000000000000     
   5.5154512810781091E-002   6.1040759715676143E-002   0.0000000000000000     
   5.7837104148707595E-002   6.6475996575749263E-002   0.0000000000000000     
   6.0436458004359844E-002   7.2093509895894831E-002   0.0000000000000000     
   6.2952574377737838E-002   7.7893299676112832E-002   0.0000000000000000     
   6.5385453268841598E-002   8.3875365916403266E-002   0.0000000000000000     
   5.0368489013231363E-002   6.0249539117423964E-002   0.0000000000000000     
   5.2864203280106097E-002   6.5708155524083114E-002   0.0000000000000000     
   5.5281562401877683E-002   7.1349411810124566E-002   0.0000000000000000     
   5.7620566378546074E-002   7.7173307975548305E-002   0.0000000000000000     
   5.9881215210111333E-002   8.3179844020354304E-002   0.0000000000000000     
   4.5776912282566265E-002   5.9514693487541979E-002   0.0000000000000000     
   4.8085625806316590E-002   6.4998932197522327E-002   0.0000000000000000     
   5.0320772092982094E-002   7.0664677661130063E-002   0.0000000000000000     
   5.2482351142562757E-002   7.6511929878365137E-002   0.0000000000000000     
   5.4570362955058599E-002   8.2540688849227578E-002   0.0000000000000000     
   7.6974086797334723E-002   8.5435509883267702E-002   0.0000000000000000     
   7.9654906269647191E-002   9.1530156632702767E-002   0.0000000000000000     
   8.2238413867483123E-002   9.7784264902985835E-002   0.0000000000000000     
   8.4724609590842492E-002  0.10419783469411691        0.0000000000000000     
   8.7113493439725354E-002  0.11077086600609602        0.0000000000000000     
   7.1083077131249395E-002   8.4627254537374394E-002   0.0000000000000000     
   7.3598013939461346E-002   9.0751565778813381E-002   0.0000000000000000     
   7.6021634630472526E-002   9.7033383892801098E-002   0.0000000000000000     
   7.8353939204282977E-002  0.10347270887933757        0.0000000000000000     
   8.0594927660892643E-002  0.11006954073842279        0.0000000000000000     
   6.5385453268841598E-002   8.3875365916403266E-002   0.0000000000000000     
   6.7734033561079876E-002   9.0026783512404104E-002   0.0000000000000000     
   6.9997254137861481E-002   9.6334627359753289E-002   0.0000000000000000     
   7.2175114999186413E-002  0.10279889745845089        0.0000000000000000     
   7.4267616145054671E-002  0.10941959380849683        0.0000000000000000     
   5.9881215210111333E-002   8.3179844020354304E-002   0.0000000000000000     
   6.2062965134502823E-002   8.9355809833474936E-002   0.0000000000000000     
   6.4165272389650016E-002   9.5687995303842435E-002   0.0000000000000000     
   6.6188136975552883E-002  0.10217640043145683        0.0000000000000000     
   6.8131558892211425E-002  0.10882102521631813        0.0000000000000000     
   5.4570362955058599E-002   8.2540688849227578E-002   0.0000000000000000     
   5.6584808659730187E-002   8.8738644742025877E-002   0.0000000000000000     
   5.8525689385838103E-002   9.5093487725068468E-002   0.0000000000000000     
   6.0393005133382346E-002  0.10160521779835541        0.0000000000000000     
   6.2186755902362917E-002  0.10827383496188667        0.0000000000000000     
   8.7113493439725354E-002  0.11077086600609602        0.0000000000000000     
   8.9406770717553652E-002  0.11749007121871874        0.0000000000000000     
   9.1606146727749402E-002  0.12434216271178067        0.0000000000000000     
   9.3711621470312603E-002  0.13132714048528180        0.0000000000000000     
   9.5723194945243256E-002  0.13844500453922212        0.0000000000000000     
   8.0594927660892643E-002  0.11006954073842279        0.0000000000000000     
   8.2745875588927709E-002  0.11681205172162712        0.0000000000000000     
   8.4808058577014248E-002  0.12368841408052089        0.0000000000000000     
   8.6781476625152287E-002  0.13069862781510413        0.0000000000000000     
   8.8666129733341828E-002  0.13784269292537682        0.0000000000000000     
   7.4267616145054671E-002  0.10941959380849683        0.0000000000000000     
   7.6275697582624313E-002  0.11618567718536647        0.0000000000000000     
   7.8200299319053382E-002  0.12308610836453512        0.0000000000000000     
   8.0041421354341918E-002  0.13012088734600277        0.0000000000000000     
   8.1799063688489868E-002  0.13729001412976938        0.0000000000000000     
   6.8131558892211425E-002  0.10882102521631813        0.0000000000000000     
   6.9996236698643480E-002  0.11561094760993677        0.0000000000000000     
   7.1782868953866819E-002  0.12253524556382329        0.0000000000000000     
   7.3491455657881483E-002  0.12959391907797763        0.0000000000000000     
   7.5121996810687403E-002  0.13678696815239982        0.0000000000000000     
   6.2186755902362917E-002  0.10827383496188667        0.0000000000000000     
   6.3907492936985180E-002  0.11508786299533807        0.0000000000000000     
   6.5555767481454530E-002  0.12203582567838545        0.0000000000000000     
   6.7131579535770938E-002  0.12911772301102878        0.0000000000000000     
   6.8634929099934419E-002  0.13633355499326810        0.0000000000000000     
   9.5723194945243256E-002  0.13844500453922212        0.0000000000000000     
   9.7644178256158495E-002  0.14570643288858212        0.0000000000000000     
   9.9477882506675483E-002  0.15312210354834227        0.0000000000000000     
  0.10122430769679421       0.16069201651850254        0.0000000000000000     
  0.10288345382651470       0.16841617179906293        0.0000000000000000     
   8.8666129733341828E-002  0.13784269292537682        0.0000000000000000     
   9.0463111583990313E-002  0.14511457016669232        0.0000000000000000     
   9.2173515859505270E-002  0.15250822029440406        0.0000000000000000     
   9.3797342559886712E-002  0.16002364330851201        0.0000000000000000     
   9.5334591685134584E-002  0.16766083920901614        0.0000000000000000     
   8.1799063688489868E-002  0.13729001412976938        0.0000000000000000     
   8.3472618874426335E-002  0.14457692976455558        0.0000000000000000     
   8.5061479465080345E-002  0.15196507529908188        0.0000000000000000     
   8.6565645460451909E-002  0.15945445073334827        0.0000000000000000     
   8.7985116860541057E-002  0.16704505606735487        0.0000000000000000     
   7.5121996810687403E-002  0.13678696815239982        0.0000000000000000     
   7.6672700127466520E-002  0.14409351168217185        0.0000000000000000     
   7.8141773323400679E-002  0.15149266856237570        0.0000000000000000     
   7.9529216398489894E-002  0.15898443879301141        0.0000000000000000     
   8.0835029352734136E-002  0.16656882237407902        0.0000000000000000     
   6.8634929099934419E-002  0.13633355499326810        0.0000000000000000     
   7.0063355343110909E-002  0.14366431591954110        0.0000000000000000     
   7.1414397434466287E-002  0.15109100008428553        0.0000000000000000     
   7.2688055374000582E-002  0.15861360748750139        0.0000000000000000     
   7.3884329161713808E-002  0.16623213812918863        0.0000000000000000     
   0.0000000000000000        0.0000000000000000        0.0000000000000000     
   2.8800806969690360E-003   1.7448864363064931E-003   0.0000000000000000     
   5.8726613923981465E-003   3.8647218100032769E-003   0.0000000000000000     
   8.9777420862873301E-003   6.3595061210903504E-003   0.0000000000000000     
   1.2195322778636589E-002   9.2292393695677134E-003   0.0000000000000000     
   0.0000000000000000        0.0000000000000000        0.0000000000000000     
   2.6103346450892912E-003   1.5889754017698304E-003   0.0000000000000000     
   5.2897497316301920E-003   3.5567739775537498E-003   0.0000000000000000     
   8.0382452596227030E-003   5.9033957273517575E-003   0.0000000000000000     
   1.0855821229066824E-002   8.6288406511638559E-003   0.0000000000000000     
   0.0000000000000000        0.0000000000000000        0.0000000000000000     
   2.3401318096377055E-003   1.4589977663499801E-003   0.0000000000000000     
   4.7202347720211755E-003   3.2998637980933541E-003   0.0000000000000000     
   7.1403088871504093E-003   5.5225980952301208E-003   0.0000000000000000     
   9.6003541550254059E-003   8.1272006577602814E-003   0.0000000000000000     
   0.0000000000000000        0.0000000000000000        0.0000000000000000     
   2.0694721906142797E-003   1.3549535300469429E-003   0.0000000000000000     
   4.1641165135710943E-003   3.0939912716220893E-003   0.0000000000000000     
   6.2839329688704473E-003   5.2171132247254368E-003   0.0000000000000000     
   8.4289215565123369E-003   7.7243193893569871E-003   0.0000000000000000     
   0.0000000000000000        0.0000000000000000        0.0000000000000000     
   1.7983557880190131E-003   1.2768426928607187E-003   0.0000000000000000     
   3.6213949562799528E-003   2.9391563981399542E-003   0.0000000000000000     
   5.4691175047828187E-003   4.9869411158377066E-003   0.0000000000000000     
   7.3415234335276140E-003   7.4201968459539766E-003   0.0000000000000000     
   1.2195322778636589E-002   9.2292393695677134E-003   0.0000000000000000     
   1.5427695890825207E-002   1.2371851412910776E-002   0.0000000000000000     
   1.8577153844232471E-002   1.5685272108594949E-002   0.0000000000000000     
   2.1643696638858383E-002   1.9169501456620226E-002   0.0000000000000000     
   2.4627324274702940E-002   2.2824539456986617E-002   0.0000000000000000     
   1.0855821229066824E-002   8.6288406511638559E-003   0.0000000000000000     
   1.3689160255988776E-002   1.1650859946780787E-002   0.0000000000000000     
   1.6484944956414779E-002   1.4887204811993298E-002   0.0000000000000000     
   1.9243175330344829E-002   1.8337875246801385E-002   0.0000000000000000     
   2.1963851377778933E-002   2.2002871251205050E-002   0.0000000000000000     
   9.6003541550254059E-003   8.1272006577602814E-003   0.0000000000000000     
   1.2076860869479334E-002   1.1046306735944762E-002   0.0000000000000000     
   1.4546319324345353E-002   1.4212551580044495E-002   0.0000000000000000     
   1.7008729519623466E-002   1.7625935190059474E-002   0.0000000000000000     
   1.9464091455313668E-002   2.1286457565989708E-002   0.0000000000000000     
   8.4289215565123369E-003   7.7243193893569871E-003   0.0000000000000000     
   1.0590797731296880E-002   1.0558191780402702E-002   0.0000000000000000     
   1.2761276948024196E-002   1.3661312412748542E-002   0.0000000000000000     
   1.4940359206694283E-002   1.7033681286394504E-002   0.0000000000000000     
   1.7128044507307143E-002   2.0675298401340594E-002   0.0000000000000000     
   7.3415234335276140E-003   7.4201968459539766E-003   0.0000000000000000     
   9.2309708414414146E-003   1.0186515080154605E-002   0.0000000000000000     
   1.1129817827451307E-002   1.3233487310105436E-002   0.0000000000000000     
   1.3038064391557289E-002   1.6561113535806474E-002   0.0000000000000000     
   1.4955710533759364E-002   2.0169393757257716E-002   0.0000000000000000     
   2.4627324274702940E-002   2.2824539456986617E-002   0.0000000000000000     
   2.7532168499424151E-002   2.6673123327429823E-002   0.0000000000000000     