 <VTKFile type="UnstructuredGrid"  version="0.1"   >
 <UnstructuredGrid>
 <Piece  NumberOfPoints="           400 "  NumberOfCells="          256 ">
 <Points>
 <DataArray  type="Float64" NumberOfComponents="3"  format="ascii" >
   0.0000000000000000        0.0000000000000000        0.0000000000000000     
   6.2500000000000000E-002   0.0000000000000000        0.0000000000000000     
  0.12500000000000000        0.0000000000000000        0.0000000000000000     
  0.18750000000000000        0.0000000000000000        0.0000000000000000     
  0.25000000000000000        0.0000000000000000        0.0000000000000000     
   0.0000000000000000        6.2500000000000000E-002   0.0000000000000000     
   6.2500000000000000E-002   6.2500000000000000E-002   0.0000000000000000     
  0.12500000000000000        6.2500000000000000E-002   0.0000000000000000     
  0.18750000000000000        6.2500000000000000E-002   0.0000000000000000     
  0.25000000000000000        6.2500000000000000E-002   0.0000000000000000     
   0.0000000000000000       0.12500000000000000        0.0000000000000000     
   6.2500000000000000E-002  0.12500000000000000        0.0000000000000000     
  0.12500000000000000       0.12500000000000000        0.0000000000000000     
  0.18750000000000000       0.12500000000000000        0.0000000000000000     
  0.25000000000000000       0.12500000000000000        0.0000000000000000     
   0.0000000000000000       0.18750000000000000        0.0000000000000000     
   6.2500000000000000E-002  0.18750000000000000        0.0000000000000000     
  0.12500000000000000       0.18750000000000000        0.0000000000000000     
  0.18750000000000000       0.18750000000000000        0.0000000000000000     
  0.25000000000000000       0.18750000000000000        0.0000000000000000     
   0.0000000000000000       0.25000000000000000        0.0000000000000000     
   6.2500000000000000E-002  0.25000000000000000        0.0000000000000000     
  0.12500000000000000       0.25000000000000000        0.0000000000000000     
  0.18750000000000000       0.25000000000000000        0.0000000000000000     
  0.25000000000000000       0.25000000000000000        0.0000000000000000     
  0.25000000000000000        0.0000000000000000        0.0000000000000000     
  0.31250000000000000        0.0000000000000000        0.0000000000000000     
  0.37500000000000000        0.0000000000000000        0.0000000000000000     
  0.43750000000000000        0.0000000000000000        0.0000000000000000     
  0.50000000000000000        0.0000000000000000        0.0000000000000000     
  0.25000000000000000        6.2500000000000000E-002   0.0000000000000000     
  0.31250000000000000        6.2500000000000000E-002   0.0000000000000000     
  0.37500000000000000        6.2500000000000000E-002   0.0000000000000000     
  0.43750000000000000        6.2500000000000000E-002   0.0000000000000000     
  0.50000000000000000        6.2500000000000000E-002   0.0000000000000000     
  0.25000000000000000       0.12500000000000000        0.0000000000000000     
  0.31250000000000000       0.12500000000000000        0.0000000000000000     
  0.37500000000000000       0.12500000000000000        0.0000000000000000     
  0.43750000000000000       0.12500000000000000        0.0000000000000000     
  0.50000000000000000       0.12500000000000000        0.0000000000000000     
  0.25000000000000000       0.18750000000000000        0.0000000000000000     
  0.31250000000000000       0.18750000000000000        0.0000000000000000     
  0.37500000000000000       0.18750000000000000        0.0000000000000000     
  0.43750000000000000       0.18750000000000000        0.0000000000000000     
  0.50000000000000000       0.18750000000000000        0.0000000000000000     
  0.25000000000000000       0.25000000000000000        0.0000000000000000     
  0.31250000000000000       0.25000000000000000        0.0000000000000000     
  0.37500000000000000       0.25000000000000000        0.0000000000000000     
  0.43750000000000000       0.25000000000000000        0.0000000000000000     
  0.50000000000000000       0.25000000000000000        0.0000000000000000     
  0.50000000000000000        0.0000000000000000        0.0000000000000000     
  0.56250000000000000        0.0000000000000000        0.0000000000000000     
  0.62500000000000000        0.0000000000000000        0.0000000000000000     
  0.68750000000000000        0.0000000000000000        0.0000000000000000     
  0.75000000000000000        0.0000000000000000        0.0000000000000000     
  0.50000000000000000        6.2500000000000000E-002   0.0000000000000000     
  0.56250000000000000        6.2500000000000000E-002   0.0000000000000000     
  0.62500000000000000        6.2500000000000000E-002   0.0000000000000000     
  0.68750000000000000        6.2500000000000000E-002   0.0000000000000000     
  0.75000000000000000        6.2500000000000000E-002   0.0000000000000000     
  0.50000000000000000       0.12500000000000000        0.0000000000000000     
  0.56250000000000000       0.12500000000000000        0.0000000000000000     
  0.62500000000000000       0.12500000000000000        0.0000000000000000     
  0.68750000000000000       0.12500000000000000        0.0000000000000000     
  0.75000000000000000       0.12500000000000000        0.0000000000000000     
  0.50000000000000000       0.18750000000000000        0.0000000000000000     
  0.56250000000000000       0.18750000000000000        0.0000000000000000     
  0.62500000000000000       0.18750000000000000        0.0000000000000000     
  0.68750000000000000       0.18750000000000000        0.0000000000000000     
  0.75000000000000000       0.18750000000000000        0.0000000000000000     
  0.50000000000000000       0.25000000000000000        0.0000000000000000     
  0.56250000000000000       0.25000000000000000        0.0000000000000000     
  0.62500000000000000       0.25000000000000000        0.0000000000000000     
  0.68750000000000000       0.25000000000000000        0.0000000000000000     
  0.75000000000000000       0.25000000000000000        0.0000000000000000     
  0.75000000000000000        0.0000000000000000        0.0000000000000000     
  0.81250000000000000        0.0000000000000000        0.0000000000000000     
  0.87500000000000000        0.0000000000000000        0.0000000000000000     
  0.93750000000000000        0.0000000000000000        0.0000000000000000     
   1.0000000000000000        0.0000000000000000        0.0000000000000000     
  0.75000000000000000        6.2500000000000000E-002   0.0000000000000000     
  0.81250000000000000        6.2500000000000000E-002   0.0000000000000000     
  0.87500000000000000        6.2500000000000000E-002   0.0000000000000000     
  0.93750000000000000        6.2500000000000000E-002   0.0000000000000000     
   1.0000000000000000        6.2500000000000000E-002   0.0000000000000000     
  0.75000000000000000       0.12500000000000000        0.0000000000000000     
  0.81250000000000000       0.12500000000000000        0.0000000000000000     
  0.87500000000000000       0.12500000000000000        0.0000000000000000     
  0.93750000000000000       0.12500000000000000        0.0000000000000000     
   1.0000000000000000       0.12500000000000000        0.0000000000000000     
  0.75000000000000000       0.18750000000000000        0.0000000000000000     
  0.81250000000000000       0.18750000000000000        0.0000000000000000     
  0.87500000000000000       0.18750000000000000        0.0000000000000000     
  0.93750000000000000       0.18750000000000000        0.0000000000000000     
   1.0000000000000000       0.18750000000000000        0.0000000000000000     
  0.75000000000000000       0.25000000000000000        0.0000000000000000     
  0.81250000000000000       0.25000000000000000        0.0000000000000000     
  0.87500000000000000       0.25000000000000000        0.0000000000000000     
  0.93750000000000000       0.25000000000000000        0.0000000000000000     
   1.0000000000000000       0.25000000000000000        0.0000000000000000     
   0.0000000000000000       0.25000000000000000        0.0000000000000000     
   6.2500000000000000E-002  0.25000000000000000        0.0000000000000000     
  0.12500000000000000       0.25000000000000000        0.0000000000000000     
  0.18750000000000000       0.25000000000000000        0.0000000000000000     
  0.25000000000000000       0.25000000000000000        0.0000000000000000     
   0.0000000000000000       0.31250000000000000        0.0000000000000000     
   6.2500000000000000E-002  0.31250000000000000        0.0000000000000000     
  0.12500000000000000       0.31250000000000000        0.0000000000000000     
  0.18750000000000000       0.31250000000000000        0.0000000000000000     
  0.25000000000000000       0.31250000000000000        0.0000000000000000     
   0.0000000000000000       0.37500000000000000        0.0000000000000000     
   6.2500000000000000E-002  0.37500000000000000        0.0000000000000000     
  0.12500000000000000       0.37500000000000000        0.0000000000000000     
  0.18750000000000000       0.37500000000000000        0.0000000000000000     
  0.25000000000000000       0.37500000000000000        0.0000000000000000     
   0.0000000000000000       0.43750000000000000        0.0000000000000000     
   6.2500000000000000E-002  0.43750000000000000        0.0000000000000000     
  0.12500000000000000       0.43750000000000000        0.0000000000000000     
  0.18750000000000000       0.43750000000000000        0.0000000000000000     
  0.25000000000000000       0.43750000000000000        0.0000000000000000     
   0.0000000000000000       0.50000000000000000        0.0000000000000000     
   6.2500000000000000E-002  0.50000000000000000        0.0000000000000000     
  0.12500000000000000       0.50000000000000000        0.0000000000000000     
[...]
 <PointData>
 <DataArray  type="Float64" Name="disp" NumberOfComponents="3" format="ascii">
   0.0000000000000000        0.0000000000000000        0.0000000000000000     
   1.0690467122001892E-002   6.3689539636042607E-003   0.0000000000000000     
   2.0500743331214610E-002   1.2959893978322784E-002   0.0000000000000000     
   2.9430828627638156E-002   1.9772820044155565E-002   0.0000000000000000     
   3.7480723011272525E-002   2.6807732161102611E-002   0.0000000000000000     
   0.0000000000000000        0.0000000000000000        0.0000000000000000     
   8.1750512383583600E-003   5.0289112347308871E-003   0.0000000000000000     
   1.5981222550786697E-002   1.0766422748647388E-002   0.0000000000000000     
   2.3418513937285005E-002   1.7212534541749504E-002   0.0000000000000000     
   3.0486925397853290E-002   2.4367246614037240E-002   0.0000000000000000     
   0.0000000000000000        0.0000000000000000        0.0000000000000000     
   6.1379885347823881E-003   4.0131892119891020E-003   0.0000000000000000     
   1.2245418957678087E-002   9.0833182508712178E-003   0.0000000000000000     
   1.8322291268687094E-002   1.5210387116646346E-002   0.0000000000000000     
   2.4368605467809418E-002   2.2394395809314491E-002   0.0000000000000000     
   0.0000000000000000        0.0000000000000000        0.0000000000000000     
   4.5792790112739743E-003   3.3217878953789026E-003   0.0000000000000000     
   9.2933325518887843E-003   7.9105804849942656E-003   0.0000000000000000     
   1.4142160621844426E-002   1.3766377768846086E-002   0.0000000000000000     
   1.9125763221140898E-002   2.0889179746934369E-002   0.0000000000000000     
   0.0000000000000000        0.0000000000000000        0.0000000000000000     
   3.4989226678331202E-003   2.9547072849002913E-003   0.0000000000000000     
   7.1249633334187854E-003   7.2482094510165334E-003   0.0000000000000000     
   1.0878121996756992E-002   1.2880506498348727E-002   0.0000000000000000     
   1.4758398657847744E-002   1.9851598426896870E-002   0.0000000000000000     
   3.7480723011272525E-002   2.6807732161102611E-002   0.0000000000000000     
   4.4912810210928363E-002   3.4395203197487331E-002   0.0000000000000000     
   5.1989473955416310E-002   4.2865806021633139E-002   0.0000000000000000     
   5.8710714244736374E-002   5.2219540633540035E-002   0.0000000000000000     
   6.5076531078888541E-002   6.2456407033208025E-002   0.0000000000000000     
   3.0486925397853290E-002   2.4367246614037240E-002   0.0000000000000000     
   3.7186956433334646E-002   3.2273292176803782E-002   0.0000000000000000     
   4.3519106544572188E-002   4.0973404441342336E-002   0.0000000000000000     
   4.9483375731565887E-002   5.0467583407652894E-002   0.0000000000000000     
   5.5079763994315752E-002   6.0755829075735457E-002   0.0000000000000000     
   2.4368605467809418E-002   2.2394395809314491E-002   0.0000000000000000     
   3.0226560934212509E-002   3.0483164247998108E-002   0.0000000000000000     
   3.5738357047063830E-002   3.9324512351819635E-002   0.0000000000000000     
   4.0903993806363392E-002   4.8918440120779096E-002   0.0000000000000000     
   4.5723471212111184E-002   5.9264947554876470E-002   0.0000000000000000     
   1.9125763221140898E-002   2.0889179746934369E-002   0.0000000000000000     
   2.4031623713561937E-002   2.9024819411070296E-002   0.0000000000000000     
   2.8647225462891276E-002   3.7919129753065044E-002   0.0000000000000000     
   3.2972568469128910E-002   4.7572110772918626E-002   0.0000000000000000     
   3.7007652732274840E-002   5.7983762470631035E-002   0.0000000000000000     
   1.4758398657847744E-002   1.9851598426896870E-002   0.0000000000000000     
   1.8602144771382948E-002   2.7898257666020356E-002   0.0000000000000000     
   2.2245711792054507E-002   3.6757256645078569E-002   0.0000000000000000     
   2.5689099719862430E-002   4.6428595364071505E-002   0.0000000000000000     
   2.8932308554806708E-002   5.6912273822999175E-002   0.0000000000000000     
   6.5076531078888541E-002   6.2456407033208025E-002   0.0000000000000000     
   7.1076297611246161E-002   7.3462651126448508E-002   0.0000000000000000     
   7.6699386995182570E-002   8.5124518819072903E-002   0.0000000000000000     
   8.1945799230697794E-002   9.7442010111081223E-002   0.0000000000000000     
   8.6815534317791793E-002  0.11041512500247344        0.0000000000000000     
   5.5079763994315752E-002   6.0755829075735457E-002   0.0000000000000000     
   6.0333451482646405E-002   7.1788499036062103E-002   0.0000000000000000     
   6.5269618346382452E-002   8.3515950879104864E-002   0.0000000000000000     
   6.9888264585523885E-002   9.5938184604863780E-002   0.0000000000000000     
   7.4189390200070690E-002  0.10905520021333878        0.0000000000000000     
   4.5723471212111184E-002   5.9264947554876470E-002   0.0000000000000000     
   5.0235946772791459E-002   7.0346187553984710E-002   0.0000000000000000     
   5.4480577996888505E-002   8.2144313017976811E-002   0.0000000000000000     
   5.8457364884402292E-002   9.4659323946852683E-002   0.0000000000000000     
   6.2166307435332836E-002  0.10789122034061241        0.0000000000000000     
   3.7007652732274840E-002   5.7983762470631035E-002   0.0000000000000000     
   4.0783783481681345E-002   6.9135716680216369E-002   0.0000000000000000     
   4.4332265946700755E-002   8.1009605235688661E-002   0.0000000000000000     
   4.7653100127333044E-002   9.3605428137048002E-002   0.0000000000000000     
   5.0746286023578203E-002  0.10692318538429429        0.0000000000000000     
   2.8932308554806708E-002   5.6912273822999175E-002   0.0000000000000000     
   3.1976961609316054E-002   6.8157086414757040E-002   0.0000000000000000     
   3.4824682195819197E-002   8.0111827532240540E-002   0.0000000000000000     
   3.7475470314316119E-002   9.2776497175449668E-002   0.0000000000000000     
   3.9929325964806826E-002  0.10615109534438447        0.0000000000000000     
   8.6815534317791793E-002  0.11041512500247344        0.0000000000000000     
   9.1261757295776555E-002  0.12397054059658702        0.0000000000000000     
   9.5237633203964042E-002  0.13803493399675942        0.0000000000000000     
   9.8743162042354282E-002  0.15260830520299065        0.0000000000000000     
  0.10177834381094721       0.16769065421528065        0.0000000000000000     
   7.4189390200070690E-002  0.10905520021333878        0.0000000000000000     
   7.8132525383480658E-002  0.12275720095456387        0.0000000000000000     
   8.1677200329211483E-002  0.13693439007857292        0.0000000000000000     
   8.4823415037263192E-002  0.15158676758536593        0.0000000000000000     
   8.7571169507635799E-002  0.16671433347494291        0.0000000000000000     
   6.2166307435332836E-002  0.10789122034061241        0.0000000000000000     
   6.5576143966044748E-002  0.12170933725521947        0.0000000000000000     
   6.8655612792902665E-002  0.13598300974663738        0.0000000000000000     
   7.1404713915906554E-002  0.15071223781486615        0.0000000000000000     
   7.3823447335056469E-002  0.16589702145990573        0.0000000000000000     
   5.0746286023578203E-002  0.10692318538429429        0.0000000000000000     
   5.3592613043468858E-002  0.12082694949855384        0.0000000000000000     
   5.6172870595037581E-002  0.13518079300095281        0.0000000000000000     
   5.8487058678284375E-002  0.14998471589149126        0.0000000000000000     
   6.0535177293209237E-002  0.16523871817016908        0.0000000000000000     
   3.9929325964806826E-002  0.10615109534438447        0.0000000000000000     
   4.2181932615752982E-002  0.12011003768456693        0.0000000000000000     
   4.4228973735616246E-002  0.13452773984151917        0.0000000000000000     
   4.6070449324396620E-002  0.14940420181524119        0.0000000000000000     
   4.7706359382094096E-002  0.16473942360573299        0.0000000000000000     
   0.0000000000000000        0.0000000000000000        0.0000000000000000     
   3.4989226678331202E-003   2.9547072849002913E-003   0.0000000000000000     
   7.1249633334187854E-003   7.2482094510165334E-003   0.0000000000000000     
   1.0878121996756992E-002   1.2880506498348727E-002   0.0000000000000000     
   1.4758398657847744E-002   1.9851598426896870E-002   0.0000000000000000     
   0.0000000000000000        0.0000000000000000        0.0000000000000000     
   2.6493551860381891E-003   2.7754020596641115E-003   0.0000000000000000     
   5.3472701564722322E-003   6.8919202414919811E-003   0.0000000000000000     
   8.0937449113021292E-003   1.2349554545483608E-002   0.0000000000000000     
   1.0888779450527880E-002   1.9148304971638993E-002   0.0000000000000000     
   0.0000000000000000        0.0000000000000000        0.0000000000000000     
   1.7830122474675461E-003   2.6473268987812081E-003   0.0000000000000000     
   3.5672118752532694E-003   6.6374279489745643E-003   0.0000000000000000     
   5.3525988833571687E-003   1.1970303150580067E-002   0.0000000000000000     
   7.1391732717792462E-003   1.8645952503597723E-002   0.0000000000000000     
   0.0000000000000000        0.0000000000000000        0.0000000000000000     
   8.9989385212119058E-004   2.5704818022515810E-003   0.0000000000000000     
   1.7847884897618934E-003   6.4847325734642856E-003   0.0000000000000000     
   2.6546839129221096E-003   1.1742752313638111E-002   0.0000000000000000     
   3.5095801216018367E-003   1.8344541022773064E-002   0.0000000000000000     
   0.0000000000000000        0.0000000000000000        0.0000000000000000     
  -8.7722797775802164E-016   2.5448667700752304E-003   0.0000000000000000     
  -1.8936675144631820E-015   6.4338341149611416E-003   0.0000000000000000     
  -3.0487765090292385E-015   1.1666902034657735E-002   0.0000000000000000     
  -4.3430970625424337E-015   1.8244070529165012E-002   0.0000000000000000     
   1.4758398657847744E-002   1.9851598426896870E-002   0.0000000000000000     
   1.8602144771382948E-002   2.7898257666020356E-002   0.0000000000000000     
   2.2245711792054507E-002   3.6757256645078569E-002   0.0000000000000000     
   2.5689099719862430E-002   4.6428595364071505E-002   0.0000000000000000     
   2.8932308554806708E-002   5.6912273822999175E-002   0.0000000000000000     
   1.0888779450527880E-002   1.9148304971638993E-002   0.0000000000000000     
   1.3654448370963756E-002   2.7057671241798212E-002   0.0000000000000000     
   1.6312826269424027E-002   3.5847153077801362E-002   0.0000000000000000     
   1.8863913145908694E-002   4.5516750479648420E-002   0.0000000000000000     
   2.1307709000417757E-002   5.6066463447339399E-002   0.0000000000000000     
   7.1391732717792462E-003   1.8645952503597723E-002   0.0000000000000000     
   8.9048587755926004E-003   2.6457252367353801E-002   0.0000000000000000     
   1.0627579129870337E-002   3.5197079101174582E-002   0.0000000000000000     
   1.2307334334612450E-002   4.4865432705060063E-002   0.0000000000000000     
   1.3944124389818947E-002   5.5462313179010236E-002   0.0000000000000000     
   3.5095801216018367E-003   1.8344541022773064E-002   0.0000000000000000     
   4.3533759852694767E-003   2.6097001042687105E-002   0.0000000000000000     
   5.1899703733934302E-003   3.4807034715198221E-002   0.0000000000000000     
   6.0193632859736942E-003   4.4474642040306413E-002   0.0000000000000000     
   6.8415547230102703E-003   5.5099823018011675E-002   0.0000000000000000     
  -4.3430970625424337E-015   1.8244070529165012E-002   0.0000000000000000     
  -5.6110715032642311E-015   2.5976917267798137E-002   0.0000000000000000     
  -6.6881721515199555E-015   3.4677019919872300E-002   0.0000000000000000     
  -7.5731386222840924E-015   4.4344378485387491E-002   0.0000000000000000     
  -8.2681257673744568E-015   5.4978992964343720E-002   0.0000000000000000     
   2.8932308554806708E-002   5.6912273822999175E-002   0.0000000000000000     
   3.1976961609316054E-002   6.8157086414757040E-002   0.0000000000000000     
   3.4824682195819197E-002   8.0111827532240540E-002   0.0000000000000000     
   3.7475470314316119E-002   9.2776497175449668E-002   0.0000000000000000     
   3.9929325964806826E-002  0.10615109534438447        0.0000000000000000     
   2.1307709000417757E-002   5.6066463447339399E-002   0.0000000000000000     
   2.3615288136488607E-002   6.7402215198614834E-002   0.0000000000000000     
   2.5757724857658634E-002   7.9429928951215201E-002   0.0000000000000000     
   2.7735019163927843E-002   9.2149604705140525E-002   0.0000000000000000     
   2.9547171055296230E-002  0.10556124246039079        0.0000000000000000     
   1.3944124389818947E-002   5.5462313179010236E-002   0.0000000000000000     
   1.5498570043992025E-002   6.6863021472797823E-002   0.0000000000000000     
   1.6931292045633886E-002   7.8942858536195509E-002   0.0000000000000000     
   1.8242290394744537E-002   9.1701824369203294E-002   0.0000000000000000     
   1.9431565091323967E-002  0.10513991897182121        0.0000000000000000     
   6.8415547230102703E-003   5.5099823018011675E-002   0.0000000000000000     
   7.6268073318263071E-003   6.6539505237306035E-002   0.0000000000000000     
   8.3453837597449454E-003   7.8650616287181480E-002   0.0000000000000000     
   8.9972840067661878E-003   9.1433156167638072E-002   0.0000000000000000     
   9.5825080728900360E-003  0.10488712487867574        0.0000000000000000     
  -8.2681257673744568E-015   5.4978992964343720E-002   0.0000000000000000     
  -8.5478499278757170E-015   6.6431666492139441E-002   0.0000000000000000     
  -8.1895211098692577E-015   7.8553202204173112E-002   0.0000000000000000     
  -7.1932206285180156E-015   9.1343600100444747E-002   0.0000000000000000     
  -5.5623908257196319E-015  0.10480286018095435        0.0000000000000000     
   3.9929325964806826E-002  0.10615109534438447        0.0000000000000000     
   4.2181932615752982E-002  0.12011003768456693        0.0000000000000000     
   4.4228973735616246E-002  0.13452773984151917        0.0000000000000000     
   4.6070449324396620E-002  0.14940420181524119        0.0000000000000000     
   4.7706359382094096E-002  0.16473942360573299        0.0000000000000000     
   2.9547171055296230E-002  0.10556124246039079        0.0000000000000000     
   3.1202370442053835E-002  0.11955513557224894        0.0000000000000000     
   3.2708807234490683E-002  0.13402157739599785        0.0000000000000000     
   3.4066481432606793E-002  0.14896056793163759        0.0000000000000000     
   3.5275393036402154E-002  0.16437210717916809        0.0000000000000000     
   1.9431565091323967E-002  0.10513991897182121        0.0000000000000000     
   2.0512194281528114E-002  0.11915877692058992        0.0000000000000000     
   2.1497256111512927E-002  0.13366003279205013        0.0000000000000000     
   2.2386750581278387E-002  0.14864368658620186        0.0000000000000000     
   2.3180677690824505E-002  0.16410973830304504        0.0000000000000000     
   9.5825080728900360E-003  0.10488712487867574        0.0000000000000000     
   1.0111404134175843E-002  0.11892096172958992        0.0000000000000000     
   1.0594320366682964E-002  0.13344310602967602        0.0000000000000000     
   1.1031256770411399E-002  0.14845355777893396        0.0000000000000000     
   1.1422213345361148E-002  0.16395231697736387        0.0000000000000000     
  -5.5623908257196319E-015  0.10480286018095435        0.0000000000000000     
  -2.9958674430119459E-015  0.11884168999924892        0.0000000000000000     
   8.0165908633578198E-016  0.13337079710887545        0.0000000000000000     
   5.8308934937356671E-015  0.14839018150983399        0.0000000000000000     
   1.2087553180606392E-014  0.16389984320212447        0.0000000000000000     
   0.0000000000000000        0.0000000000000000        0.0000000000000000     
  -8.7722797775802164E-016   2.5448667700752304E-003   0.0000000000000000     
  -1.8936675144631820E-015   6.4338341149611416E-003   0.0000000000000000     
  -3.0487765090292385E-015   1.1666902034657735E-002   0.0000000000000000     
  -4.3430970625424337E-015   1.8244070529165012E-002   0.0000000000000000     
   0.0000000000000000        0.0000000000000000        0.0000000000000000     
  -8.9989385212283618E-004   2.5704818022521071E-003   0.0000000000000000     
  -1.7847884897654589E-003   6.4847325734650628E-003   0.0000000000000000     
  -2.6546839129278684E-003   1.1742752313638869E-002   0.0000000000000000     
  -3.5095801216100632E-003   1.8344541022773525E-002   0.0000000000000000     
   0.0000000000000000        0.0000000000000000        0.0000000000000000     
  -1.7830122474688660E-003   2.6473268987821604E-003   0.0000000000000000     
  -3.5672118752561694E-003   6.6374279489759738E-003   0.0000000000000000     
  -5.3525988833619106E-003   1.1970303150581443E-002   0.0000000000000000     
  -7.1391732717860923E-003   1.8645952503598563E-002   0.0000000000000000     
   0.0000000000000000        0.0000000000000000        0.0000000000000000     
  -2.6493551860389654E-003   2.7754020596653913E-003   0.0000000000000000     
  -5.3472701564740250E-003   6.8919202414938763E-003   0.0000000000000000     
  -8.0937449113051788E-003   1.2349554545485454E-002   0.0000000000000000     
  -1.0888779450532427E-002   1.9148304971640124E-002   0.0000000000000000     
   0.0000000000000000        0.0000000000000000        0.0000000000000000     
  -3.4989226678331354E-003   2.9547072849018001E-003   0.0000000000000000     
  -7.1249633334190265E-003   7.2482094510187686E-003   0.0000000000000000     
  -1.0878121996757670E-002   1.2880506498350907E-002   0.0000000000000000     
  -1.4758398657849069E-002   1.9851598426898213E-002   0.0000000000000000     
  -4.3430970625424337E-015   1.8244070529165012E-002   0.0000000000000000     
  -5.6110715032642311E-015   2.5976917267798137E-002   0.0000000000000000     
  -6.6881721515199555E-015   3.4677019919872300E-002   0.0000000000000000     
  -7.5731386222840924E-015   4.4344378485387491E-002   0.0000000000000000     
  -8.2681257673744568E-015   5.4978992964343720E-002   0.0000000000000000     
  -3.5095801216100632E-003   1.8344541022773525E-002   0.0000000000000000     
  -4.3533759852801210E-003   2.6097001042686897E-002   0.0000000000000000     
  -5.1899703734061171E-003   3.4807034715196861E-002   0.0000000000000000     
  -6.0193632859880490E-003   4.4474642040303408E-002   0.0000000000000000     
  -6.8415547230259201E-003   5.5099823018006554E-002   0.0000000000000000     
  -7.1391732717860923E-003   1.8645952503598563E-002   0.0000000000000000     
  -8.9048587756015065E-003   2.6457252367353388E-002   0.0000000000000000     
  -1.0627579129880951E-002   3.5197079101171959E-002   0.0000000000000000     
  -1.2307334334624430E-002   4.4865432705054296E-002   0.0000000000000000     
  -1.3944124389831938E-002   5.5462313179000369E-002   0.0000000000000000     
  -1.0888779450532427E-002   1.9148304971640124E-002   0.0000000000000000     
  -1.3654448370969768E-002   2.7057671241797601E-002   0.0000000000000000     
  -1.6312826269431202E-002   3.5847153077797608E-002   0.0000000000000000     
  -1.8863913145916719E-002   4.5516750479640128E-002   0.0000000000000000     
  -2.1307709000426327E-002   5.6066463447325167E-002   0.0000000000000000     
  -1.4758398657849069E-002   1.9851598426898213E-002   0.0000000000000000     
  -1.8602144771384898E-002   2.7898257666019555E-002   0.0000000000000000     
  -2.2245711792056849E-002   3.6757256645073788E-002   0.0000000000000000     
  -2.5689099719864904E-002   4.6428595364060916E-002   0.0000000000000000     
  -2.8932308554809074E-002   5.6912273822980933E-002   0.0000000000000000     
  -8.2681257673744568E-015   5.4978992964343720E-002   0.0000000000000000     
  -8.5478499278757170E-015   6.6431666492139441E-002   0.0000000000000000     