 <VTKFile type="UnstructuredGrid"  version="0.1"   >
 <UnstructuredGrid>
 <Piece  NumberOfPoints="          1600 "  NumberOfCells="         1024 ">
 <Points>
 <DataArray  type="Float64" NumberOfComponents="3"  format="ascii" >
   0.0000000000000000        0.0000000000000000        0.0000000000000000     
   3.1250000000000000E-002   0.0000000000000000        0.0000000000000000     
   6.2500000000000000E-002   0.0000000000000000        0.0000000000000000     
   9.3750000000000000E-002   0.0000000000000000        0.0000000000000000     
  0.12500000000000000        0.0000000000000000        0.0000000000000000     
   0.0000000000000000        3.1250000000000000E-002   0.0000000000000000     
   3.1250000000000000E-002   3.1250000000000000E-002   0.0000000000000000     
   6.2500000000000000E-002   3.1250000000000000E-002   0.0000000000000000     
   9.3750000000000000E-002   3.1250000000000000E-002   0.0000000000000000     
  0.12500000000000000        3.1250000000000000E-002   0.0000000000000000     
   0.0000000000000000        6.2500000000000000E-002   0.0000000000000000     
   3.1250000000000000E-002   6.2500000000000000E-002   0.0000000000000000     
   6.2500000000000000E-002   6.2500000000000000E-002   0.0000000000000000     
   9.3750000000000000E-002   6.2500000000000000E-002   0.0000000000000000     
  0.12500000000000000        6.2500000000000000E-002   0.0000000000000000     
   0.0000000000000000        9.3750000000000000E-002   0.0000000000000000     
   3.1250000000000000E-002   9.3750000000000000E-002   0.0000000000000000     
   6.2500000000000000E-002   9.3750000000000000E-002   0.0000000000000000     
   9.3750000000000000E-002   9.3750000000000000E-002   0.0000000000000000     
  0.12500000000000000        9.3750000000000000E-002   0.0000000000000000     
   0.0000000000000000       0.12500000000000000        0.0000000000000000     
   3.1250000000000000E-002  0.12500000000000000        0.0000000000000000     
   6.2500000000000000E-002  0.12500000000000000        0.0000000000000000     
   9.3750000000000000E-002  0.12500000000000000        0.0000000000000000     
  0.12500000000000000       0.12500000000000000        0.0000000000000000     
  0.12500000000000000        0.0000000000000000        0.0000000000000000     
  0.15625000000000000        0.0000000000000000        0.0000000000000000     
  0.18750000000000000        0.0000000000000000        0.0000000000000000     
  0.21875000000000000        0.0000000000000000        0.0000000000000000     
  0.25000000000000000        0.0000000000000000        0.0000000000000000     
  0.12500000000000000        3.1250000000000000E-002   0.0000000000000000     
  0.15625000000000000        3.1250000000000000E-002   0.0000000000000000     
  0.18750000000000000        3.1250000000000000E-002   0.0000000000000000     
  0.21875000000000000        3.1250000000000000E-002   0.0000000000000000     
  0.25000000000000000        3.1250000000000000E-002   0.0000000000000000     
  0.12500000000000000        6.2500000000000000E-002   0.0000000000000000     
  0.15625000000000000        6.2500000000000000E-002   0.0000000000000000     
  0.18750000000000000        6.2500000000000000E-002   0.0000000000000000     
  0.21875000000000000        6.2500000000000000E-002   0.0000000000000000     
  0.25000000000000000        6.2500000000000000E-002   0.0000000000000000     
  0.12500000000000000        9.3750000000000000E-002   0.0000000000000000     
  0.15625000000000000        9.3750000000000000E-002   0.0000000000000000     
  0.18750000000000000        9.3750000000000000E-002   0.0000000000000000     
  0.21875000000000000        9.3750000000000000E-002   0.0000000000000000     
  0.25000000000000000        9.3750000000000000E-002   0.0000000000000000     
  0.12500000000000000       0.12500000000000000        0.0000000000000000     
  0.15625000000000000       0.12500000000000000        0.0000000000000000     
  0.18750000000000000       0.12500000000000000        0.0000000000000000     
  0.21875000000000000       0.12500000000000000        0.0000000000000000     
  0.25000000000000000       0.12500000000000000        0.0000000000000000     
  0.25000000000000000        0.0000000000000000        0.0000000000000000     
  0.28125000000000000        0.0000000000000000        0.0000000000000000     
  0.31250000000000000        0.0000000000000000        0.0000000000000000     
  0.34375000000000000        0.0000000000000000        0.0000000000000000     
  0.37500000000000000        0.0000000000000000        0.0000000000000000     
  0.25000000000000000        3.1250000000000000E-002   0.0000000000000000     
  0.28125000000000000        3.1250000000000000E-002   0.0000000000000000     
  0.31250000000000000        3.1250000000000000E-002   0.0000000000000000     
  0.34375000000000000        3.1250000000000000E-002   0.0000000000000000     
  0.37500000000000000        3.1250000000000000E-002   0.0000000000000000     
  0.25000000000000000        6.2500000000000000E-002   0.0000000000000000     
  0.28125000000000000        6.2500000000000000E-002   0.0000000000000000     
  0.31250000000000000        6.2500000000000000E-002   0.0000000000000000     
  0.34375000000000000        6.2500000000000000E-002   0.0000000000000000     
  0.37500000000000000        6.2500000000000000E-002   0.0000000000000000     
  0.25000000000000000        9.3750000000000000E-002   0.0000000000000000     
  0.28125000000000000        9.3750000000000000E-002   0.0000000000000000     
  0.31250000000000000        9.3750000000000000E-002   0.0000000000000000     
  0.34375000000000000        9.3750000000000000E-002   0.0000000000000000     
  0.37500000000000000        9.3750000000000000E-002   0.0000000000000000     
  0.25000000000000000       0.12500000000000000        0.0000000000000000     
  0.28125000000000000       0.12500000000000000        0.0000000000000000     
  0.31250000000000000       0.12500000000000000        0.0000000000000000     
  0.34375000000000000       0.12500000000000000        0.0000000000000000     
  0.37500000000000000       0.12500000000000000        0.0000000000000000     
  0.37500000000000000        0.0000000000000000        0.0000000000000000     
  0.40625000000000000        0.0000000000000000        0.0000000000000000     
  0.43750000000000000        0.0000000000000000        0.0000000000000000     
  0.46875000000000000        0.0000000000000000        0.0000000000000000     
  0.50000000000000000        0.0000000000000000        0.0000000000000000     
  0.37500000000000000        3.1250000000000000E-002   0.0000000000000000     
  0.40625000000000000        3.1250000000000000E-002   0.0000000000000000     
  0.43750000000000000        3.1250000000000000E-002   0.0000000000000000     
  0.46875000000000000        3.1250000000000000E-002   0.0000000000000000     
  0.50000000000000000        3.1250000000000000E-002   0.0000000000000000     
  0.37500000000000000        6.2500000000000000E-002   0.0000000000000000     
  0.40625000000000000        6.2500000000000000E-002   0.0000000000000000     
  0.43750000000000000        6.2500000000000000E-002   0.0000000000000000     
  0.46875000000000000        6.2500000000000000E-002   0.0000000000000000     
  0.50000000000000000        6.2500000000000000E-002   0.0000000000000000     
  0.37500000000000000        9.3750000000000000E-002   0.0000000000000000     
  0.40625000000000000        9.3750000000000000E-002   0.0000000000000000     
  0.43750000000000000        9.3750000000000000E-002   0.0000000000000000     
  0.46875000000000000        9.3750000000000000E-002   0.0000000000000000     
  0.50000000000000000        9.3750000000000000E-002   0.0000000000000000     
  0.37500000000000000       0.12500000000000000        0.0000000000000000     
  0.40625000000000000       0.12500000000000000        0.0000000000000000     
  0.43750000000000000       0.12500000000000000        0.0000000000000000     
  0.46875000000000000       0.12500000000000000        0.0000000000000000     
  0.50000000000000000       0.12500000000000000        0.0000000000000000     
  0.50000000000000000        0.0000000000000000        0.0000000000000000     
  0.53125000000000000        0.0000000000000000        0.0000000000000000     
  0.56250000000000000        0.0000000000000000        0.0000000000000000     
  0.59375000000000000        0.0000000000000000        0.0000000000000000     
  0.62500000000000000        0.0000000000000000        0.0000000000000000     
  0.50000000000000000        3.1250000000000000E-002   0.0000000000000000     
  0.53125000000000000        3.1250000000000000E-002   0.0000000000000000     
  0.56250000000000000        3.1250000000000000E-002   0.0000000000000000     
  0.59375000000000000        3.1250000000000000E-002   0.0000000000000000     
  0.62500000000000000        3.1250000000000000E-002   0.0000000000000000     
  0.50000000000000000        6.2500000000000000E-002   0.0000000000000000     
  0.53125000000000000        6.2500000000000000E-002   0.0000000000000000     
  0.56250000000000000        6.2500000000000000E-002   0.0000000000000000     
  0.59375000000000000        6.2500000000000000E-002   0.0000000000000000     
  0.62500000000000000        6.2500000000000000E-002   0.0000000000000000     
  0.50000000000000000        9.3750000000000000E-002   0.0000000000000000     
  0.53125000000000000        9.3750000000000000E-002   0.0000000000000000     
  0.56250000000000000        9.3750000000000000E-002   0.0000000000000000     
  0.59375000000000000        9.3750000000000000E-002   0.0000000000000000     
  0.62500000000000000        9.3750000000000000E-002   0.0000000000000000     
  0.50000000000000000       0.12500000000000000        0.0000000000000000     
  0.53125000000000000       0.12500000000000000        0.0000000000000000     
  0.56250000000000000       0.12500000000000000        0.0000000000000000     
[...]
 <PointData>
 <DataArray  type="Float64" Name="disp" NumberOfComponents="3" format="ascii">
   0.0000000000000000        0.0000000000000000        0.0000000000000000     
   6.0957231459591770E-003   3.7903466958117259E-003   0.0000000000000000     
   1.1665660596736432E-002   7.3237279176813150E-003   0.0000000000000000     
   1.6709812352331769E-002   1.0600143665608769E-002   0.0000000000000000     
   2.1228178412745186E-002   1.3619593939594084E-002   0.0000000000000000     
   0.0000000000000000        0.0000000000000000        0.0000000000000000     
   4.8910127331650895E-003   3.0221229259467962E-003   0.0000000000000000     
   9.5734107033799993E-003   6.0604972381433989E-003   0.0000000000000000     
   1.4047193910644731E-002   9.1151229365898090E-003   0.0000000000000000     
   1.8312362354959286E-002   1.2186000021286024E-002   0.0000000000000000     
   0.0000000000000000        0.0000000000000000        0.0000000000000000     
   3.9534997752244819E-003   2.4251354392775199E-003   0.0000000000000000     
   7.9104866845132304E-003   5.0629138377179961E-003   0.0000000000000000     
   1.1870960727866245E-002   7.9133351953214314E-003   0.0000000000000000     
   1.5834921905283527E-002   1.0976399512087823E-002   0.0000000000000000     
   0.0000000000000000        0.0000000000000000        0.0000000000000000     
   3.2831842721373567E-003   1.9993842358038958E-003   0.0000000000000000     
   6.6768885401361274E-003   4.3309777164051086E-003   0.0000000000000000     
   1.0181112803996310E-002   6.9947804418036361E-003   0.0000000000000000     
   1.3795857063717906E-002   9.9907924119994815E-003   0.0000000000000000     
   0.0000000000000000        0.0000000000000000        0.0000000000000000     
   2.8800662239037138E-003   1.7448693155259244E-003   0.0000000000000000     
   5.8726162702486887E-003   3.8646888742047327E-003   0.0000000000000000     
   8.9776501390349261E-003   6.3594586760364249E-003   0.0000000000000000     
   1.2195167830262425E-002   9.2291787210209992E-003   0.0000000000000000     
   2.1228178412745186E-002   1.3619593939594084E-002   0.0000000000000000     
   2.5433377294121096E-002   1.6612608821348053E-002   0.0000000000000000     
   2.9538027512603929E-002   1.9809718392581461E-002   0.0000000000000000     
   3.3542129068193670E-002   2.3210922653294302E-002   0.0000000000000000     
   3.7445681960890334E-002   2.6816221603486595E-002   0.0000000000000000     
   1.8312362354959286E-002   1.2186000021286024E-002   0.0000000000000000     
   2.2407014176274040E-002   1.5341467289424208E-002   0.0000000000000000     
   2.6369247514539368E-002   1.8649863538196511E-002   0.0000000000000000     
   3.0199062369755277E-002   2.2111188767602943E-002   0.0000000000000000     
   3.3896458741921764E-002   2.5725442977643495E-002   0.0000000000000000     
   1.5834921905283527E-002   1.0976399512087823E-002   0.0000000000000000     
   1.9730572193344550E-002   1.4210943367229755E-002   0.0000000000000000     
   2.3486113568628807E-002   1.7575803339959818E-002   0.0000000000000000     
   2.7101546031136285E-002   2.1070979430278011E-002   0.0000000000000000     
   3.0576869580866993E-002   2.4696471638184329E-002   0.0000000000000000     
   1.3795857063717906E-002   9.9907924119994815E-003   0.0000000000000000     
   1.7404051345332634E-002   1.3221037054764710E-002   0.0000000000000000     
   2.0888625674872235E-002   1.6587537797871390E-002   0.0000000000000000     
   2.4249580052336683E-002   2.0090294641319513E-002   0.0000000000000000     
   2.7486914477726006E-002   2.3729307585109091E-002   0.0000000000000000     
   1.2195167830262425E-002   9.2291787210209992E-003   0.0000000000000000     
   1.5427451632238295E-002   1.2371748352029062E-002   0.0000000000000000     
   1.8576783833269647E-002   1.5685066911931212E-002   0.0000000000000000     
   2.1643164433356486E-002   1.9169134400727452E-002   0.0000000000000000     
   2.4626593432498803E-002   2.2823950818417781E-002   0.0000000000000000     
   3.7445681960890334E-002   2.6816221603486595E-002   0.0000000000000000     
   4.1253713374297563E-002   3.0620971709367933E-002   0.0000000000000000     
   4.4971250492019006E-002   3.4620529437147926E-002   0.0000000000000000     
   4.8598293314054658E-002   3.8814894786826593E-002   0.0000000000000000     
   5.2134841840404539E-002   4.3204067758403908E-002   0.0000000000000000     
   3.3896458741921764E-002   2.5725442977643495E-002   0.0000000000000000     
   3.7484927487810363E-002   2.9521324077315308E-002   0.0000000000000000     
   4.0987959464192585E-002   3.3527529975615498E-002   0.0000000000000000     
   4.4405554671068437E-002   3.7744060672544093E-002   0.0000000000000000     
   4.7737713108437919E-002   4.2170916168101057E-002   0.0000000000000000     
   3.0576869580866993E-002   2.4696471638184329E-002   0.0000000000000000     
   3.3941590012946408E-002   2.8496658998357342E-002   0.0000000000000000     
   3.7225213122500003E-002   3.2515920545475634E-002   0.0000000000000000     
   4.0427738909527784E-002   3.6754256279539183E-002   0.0000000000000000     
   4.3549167374029744E-002   4.1211666200548003E-002   0.0000000000000000     
   2.7486914477726006E-002   2.3729307585109091E-002   0.0000000000000000     
   3.0623700949705693E-002   2.7546976472494048E-002   0.0000000000000000     
   3.3683011466941255E-002   3.1585701146728304E-002   0.0000000000000000     
   3.6664846029432693E-002   3.5845481607811876E-002   0.0000000000000000     
   3.9569204637180021E-002   4.0326317855744746E-002   0.0000000000000000     
   2.4626593432498803E-002   2.2823950818417781E-002   0.0000000000000000     
   2.7531260298088219E-002   2.6672276499725405E-002   0.0000000000000000     
   3.0361354497516348E-002   3.0736871779373533E-002   0.0000000000000000     
   3.3116876030783185E-002   3.5017736657362158E-002   0.0000000000000000     
   3.5797824897888741E-002   3.9514871133691287E-002   0.0000000000000000     
   5.2134841840404539E-002   4.3204067758403908E-002   0.0000000000000000     
   5.5576794429191188E-002   4.7792956001938683E-002   0.0000000000000000     
   5.8920049438537195E-002   5.2586467167489680E-002   0.0000000000000000     
   6.2164606868442544E-002   5.7584601255056905E-002   0.0000000000000000     
   6.5310466718907251E-002   6.2787358264640367E-002   0.0000000000000000     
   4.7737713108437919E-002   4.2170916168101057E-002   0.0000000000000000     
   5.0979477927950032E-002   4.6802536064758961E-002   0.0000000000000000     
   5.4125892281253793E-002   5.1633359964990327E-002   0.0000000000000000     
   5.7176956168349197E-002   5.6663387868795149E-002   0.0000000000000000     
   6.0132669589236243E-002   6.1892619776173455E-002   0.0000000000000000     
   4.3549167374029744E-002   4.1211666200548003E-002   0.0000000000000000     
   4.6584824153952639E-002   4.5876731049511559E-002   0.0000000000000000     
   4.9530034887243210E-002   5.0738031567439293E-002   0.0000000000000000     
   5.2384799573901464E-002   5.5795567754331206E-002   0.0000000000000000     
   5.5149118213927401E-002   6.1049339610187311E-002   0.0000000000000000     
   3.9569204637180021E-002   4.0326317855744746E-002   0.0000000000000000     
   4.2392833107199004E-002   4.5015540956196469E-002   0.0000000000000000     
   4.5132477256505453E-002   4.9900481974836569E-002   0.0000000000000000     
   4.7788137085099366E-002   5.4981140911665068E-002   0.0000000000000000     
   5.0359812592980738E-002   6.0257517766681944E-002   0.0000000000000000     
   3.5797824897888741E-002   3.9514871133691287E-002   0.0000000000000000     
   3.8403504787689141E-002   4.4218965784813699E-002   0.0000000000000000     
   4.0933219389040522E-002   4.9120711187182184E-002   0.0000000000000000     
   4.3386968701942884E-002   5.4220107340796735E-002   0.0000000000000000     
   4.5764752726396241E-002   5.9517154245657351E-002   0.0000000000000000     
   6.5310466718907251E-002   6.2787358264640367E-002   0.0000000000000000     
   6.8364081493942658E-002   6.8180604938613054E-002   0.0000000000000000     
   7.1331903697560040E-002   7.3750208019347965E-002   0.0000000000000000     
   7.4213933329759466E-002   7.9496167506845086E-002   0.0000000000000000     
   7.7010170390540880E-002   8.5418483401104445E-002   0.0000000000000000     
   6.0132669589236243E-002   6.1892619776173455E-002   0.0000000000000000     
   6.3000170883452250E-002   6.7310658502999485E-002   0.0000000000000000     
   6.5786598390534537E-002   7.2907106865147508E-002   0.0000000000000000     
   6.8491952110483104E-002   7.8681964862617512E-002   0.0000000000000000     
   7.1116232043297964E-002   8.4635232495409496E-002   0.0000000000000000     
   5.5149118213927401E-002   6.1049339610187311E-002   0.0000000000000000     
   5.7829977252085406E-002   6.6491055947241334E-002   0.0000000000000000     
   6.0434363133139865E-002   7.2112425577726985E-002   0.0000000000000000     
   6.2962275857090785E-002   7.7913448501644278E-002   0.0000000000000000     
   6.5413715423938187E-002   8.3894124718993213E-002   0.0000000000000000     
   5.0359812592980738E-002   6.0257517766681944E-002   0.0000000000000000     
   5.2853500599842104E-002   6.5721797271338603E-002   0.0000000000000000     
   5.5275197925376024E-002   7.1366164157086437E-002   0.0000000000000000     
   5.7624904569582504E-002   7.7190618423925425E-002   0.0000000000000000     
   5.9902620532461530E-002   8.3195160071855609E-002   0.0000000000000000     
   4.5764752726396241E-002   5.9517154245657351E-002   0.0000000000000000     
   4.8070740926722352E-002   6.5002882475291290E-002   0.0000000000000000     
   5.0309102767243020E-002   7.0668322603225822E-002   0.0000000000000000     
   5.2479838247958224E-002   7.6513474629460954E-002   0.0000000000000000     
   5.4582947368867991E-002   8.2538338553996685E-002   0.0000000000000000     
   7.7010170390540880E-002   8.5418483401104445E-002   0.0000000000000000     
   7.9708275348195828E-002   9.1509443542902469E-002   0.0000000000000000     
   8.2295908671015827E-002   9.7761335773015670E-002   0.0000000000000000     
   8.4773070359000849E-002  0.10417416009144402        0.0000000000000000     
   8.7139760412150935E-002  0.11074791649818752        0.0000000000000000     
   7.1116232043297964E-002   8.4635232495409496E-002   0.0000000000000000     
   7.3647871555394720E-002   9.0757550568242557E-002   0.0000000000000000     
   7.6075304013188974E-002   9.7039559885835763E-002   0.0000000000000000     
   7.8398529416680726E-002  0.10348126044818912        0.0000000000000000     
   8.0617547765870004E-002  0.11008265225530264        0.0000000000000000     
   6.5413715423938187E-002   8.3894124718993213E-002   0.0000000000000000     
   6.7778104777444101E-002   9.0044204837458369E-002   0.0000000000000000     
   7.0044866861370583E-002   9.6353439464724314E-002   0.0000000000000000     
   7.2214001675717635E-002  0.10282182860079102        0.0000000000000000     
   7.4285509220485282E-002  0.10944937224565857        0.0000000000000000     
   5.9902620532461530E-002   8.3195160071855609E-002   0.0000000000000000     
   6.2098975014343950E-002   8.9369406350549907E-002   0.0000000000000000     
   6.4204597215560627E-002   9.5702974509681293E-002   0.0000000000000000     
   6.6219487136111588E-002  0.10219586454924975        0.0000000000000000     
   6.8143644775996756E-002  0.10884807646925532        0.0000000000000000     
   5.4582947368867991E-002   8.2538338553996685E-002   0.0000000000000000     
   5.6610482266094303E-002   8.8733155107517198E-002   0.0000000000000000     
   5.8554495075759147E-002   9.5088165020706744E-002   0.0000000000000000     
   6.0414985797862537E-002  0.10160336829356528        0.0000000000000000     
   6.2191954432404467E-002  0.10827876492609285        0.0000000000000000     
   8.7139760412150935E-002  0.11074791649818752        0.0000000000000000     
   8.9410413259260746E-002  0.11746862060870542        0.0000000000000000     
   9.1599463329125039E-002  0.12432228803845691        0.0000000000000000     
   9.3706910621743786E-002  0.13130891878744202        0.0000000000000000     
   9.5732755137117015E-002  0.13842851285566074        0.0000000000000000     
   8.0617547765870004E-002  0.11008265225530264        0.0000000000000000     
   8.2746564774588791E-002  0.11683143116543439        0.0000000000000000     
   8.4799786156669152E-002  0.12371529303684251        0.0000000000000000     
   8.6777211912111060E-002  0.13073423786952695        0.0000000000000000     
   8.8678842040914543E-002  0.13788826566348775        0.0000000000000000     
   7.4285509220485282E-002  0.10944937224565857        0.0000000000000000     
   7.6272892475165138E-002  0.11622405285110360        0.0000000000000000     
   7.8189654419248814E-002  0.12313385286890288        0.0000000000000000     
   8.0035795052736350E-002  0.13017877229905636        0.0000000000000000     
   8.1811314375627719E-002  0.13735881114156409        0.0000000000000000     
   6.8143644775996756E-002  0.10884807646925532        0.0000000000000000     
   6.9989396360989733E-002  0.11564648566571302        0.0000000000000000     
   7.1769068116864038E-002  0.12257796753463801        0.0000000000000000     
   7.3482660043619655E-002  0.12964252207603030        0.0000000000000000     
   7.5130172141256571E-002  0.13684014928988983        0.0000000000000000     
   6.2191954432404467E-002  0.10827876492609285        0.0000000000000000     
   6.3896076432062646E-002  0.11509872960926266        0.0000000000000000     
   6.5538027249514810E-002  0.12204763703404793        0.0000000000000000     
   6.7117806884760947E-002  0.12912548720044870        0.0000000000000000     
   6.8635415337801070E-002  0.13633228010846490        0.0000000000000000     
   9.5732755137117015E-002  0.13842851285566074        0.0000000000000000     
   9.7664181211183851E-002  0.14565796404020909        0.0000000000000000     
   9.9488373179883460E-002  0.15297416613818307        0.0000000000000000     
  0.10120533104321588       0.16037711914958272        0.0000000000000000     
  0.10281505480118107       0.16786682307440803        0.0000000000000000     
   8.8678842040914543E-002  0.13788826566348775        0.0000000000000000     
   9.0490864391024550E-002  0.14516174616610561        0.0000000000000000     
   9.2199466810386058E-002  0.15253904912476135        0.0000000000000000     
   9.3804649298999038E-002  0.16002017453945500        0.0000000000000000     
   9.5306411856863546E-002  0.16760512241018649        0.0000000000000000     
   8.1811314375627719E-002  0.13735881114156409        0.0000000000000000     
   8.3502242615171793E-002  0.14466363294677695        0.0000000000000000     
   8.5094609998617343E-002  0.15208290126504589        0.0000000000000000     
   8.6588416525964398E-002  0.15961661609637093        0.0000000000000000     
   8.7983662197212972E-002  0.16726477744075199        0.0000000000000000     
   7.5130172141256571E-002  0.13684014928988983        0.0000000000000000     
   7.6698315883625565E-002  0.14416362438222310        0.0000000000000000     
   7.8173802744577345E-002  0.15160572255903668        0.0000000000000000     
   7.9556632724111939E-002  0.15916644382033052        0.0000000000000000     
   8.0846805822229320E-002  0.16684578816610457        0.0000000000000000     
   6.8635415337801070E-002  0.13633228010846490        0.0000000000000000     
   7.0079084196385866E-002  0.14366172047244410        0.0000000000000000     
   7.1437045048266049E-002  0.15110751300673370        0.0000000000000000     
   7.2709297893441646E-002  0.15866965771133376        0.0000000000000000     
   7.3895842731912603E-002  0.16634815458624425        0.0000000000000000     
   0.0000000000000000        0.0000000000000000        0.0000000000000000     
   2.8800662239037138E-003   1.7448693155259244E-003   0.0000000000000000     
   5.8726162702486887E-003   3.8646888742047327E-003   0.0000000000000000     
   8.9776501390349261E-003   6.3594586760364249E-003   0.0000000000000000     
   1.2195167830262425E-002   9.2291787210209992E-003   0.0000000000000000     
   0.0000000000000000        0.0000000000000000        0.0000000000000000     
   2.6103177146231662E-003   1.5889455266111375E-003   0.0000000000000000     
   5.2897066770353322E-003   3.5567467224550658E-003   0.0000000000000000     
   8.0381668872364989E-003   5.9034035875317852E-003   0.0000000000000000     
   1.0855698345226664E-002   8.6289161218412944E-003   0.0000000000000000     
   0.0000000000000000        0.0000000000000000        0.0000000000000000     
   2.3401108283953300E-003   1.4589677172270662E-003   0.0000000000000000     
   4.7201965626804746E-003   3.2998506724943024E-003   0.0000000000000000     
   7.1402572028554327E-003   5.5226488658017062E-003   0.0000000000000000     
   9.6002927489202070E-003   8.1273622971492817E-003   0.0000000000000000     
   0.0000000000000000        0.0000000000000000        0.0000000000000000     
   2.0694455652202032E-003   1.3549358873737110E-003   0.0000000000000000     
   4.1640859271841130E-003   3.0940007243224414E-003   0.0000000000000000     
   6.2839210858917317E-003   5.2171945108461905E-003   0.0000000000000000     
   8.4289510413430562E-003   7.7245172469449603E-003   0.0000000000000000     
   0.0000000000000000        0.0000000000000000        0.0000000000000000     
   1.7983219250977873E-003   1.2768500370510716E-003   0.0000000000000000     
   3.6213747705462506E-003   2.9391968779394840E-003   0.0000000000000000     
   5.4691585363453900E-003   4.9870405226652374E-003   0.0000000000000000     
   7.3416732224952062E-003   7.4203809712283311E-003   0.0000000000000000     
   1.2195167830262425E-002   9.2291787210209992E-003   0.0000000000000000     
   1.5427451632238295E-002   1.2371748352029062E-002   0.0000000000000000     
   1.8576783833269647E-002   1.5685066911931212E-002   0.0000000000000000     
   2.1643164433356486E-002   1.9169134400727452E-002   0.0000000000000000     
   2.4626593432498803E-002   2.2823950818417781E-002   0.0000000000000000     
   1.0855698345226664E-002   8.6289161218412944E-003   0.0000000000000000     
   1.3688955261343335E-002   1.1650951612603398E-002   0.0000000000000000     
   1.6484591845924025E-002   1.4887177347037893E-002   0.0000000000000000     
   1.9242608098968723E-002   1.8337593325144782E-002   0.0000000000000000     
   2.1963004020477437E-002   2.2002199546924065E-002   0.0000000000000000     
   9.6002927489202070E-003   8.1273622971492817E-003   0.0000000000000000     
   1.2076744439929578E-002   1.1046521190068296E-002   0.0000000000000000     
   1.4546053514938326E-002   1.4212655768090023E-002   0.0000000000000000     
   1.7008219973946456E-002   1.7625766031214459E-002   0.0000000000000000     
   1.9463243816953964E-002   2.1285851979441620E-002   0.0000000000000000     
   8.4289510413430562E-003   7.7245172469449603E-003   0.0000000000000000     
   1.0590819167997020E-002   1.0558457084423760E-002   0.0000000000000000     
   1.2761168840312562E-002   1.3661502175087607E-002   0.0000000000000000     
   1.4940000058289686E-002   1.7033652518936494E-002   0.0000000000000000     
   1.7127312821928382E-002   2.0674908115970426E-002   0.0000000000000000     
   7.3416732224952062E-003   7.4203809712283311E-003   0.0000000000000000     
   9.2311794455456654E-003   1.0186759295669789E-002   0.0000000000000000     
   1.1129937822046732E-002   1.3233716568030641E-002   0.0000000000000000     
   1.3037948351998407E-002   1.6561252788310873E-002   0.0000000000000000     
   1.4955211035400687E-002   2.0169367956510503E-002   0.0000000000000000     
   2.4626593432498803E-002   2.2823950818417781E-002   0.0000000000000000     
   2.7531260298088219E-002   2.6672276499725405E-002   0.0000000000000000     