 <VTKFile type="UnstructuredGrid"  version="0.1"   >
 <UnstructuredGrid>
 <Piece  NumberOfPoints="          6400 "  NumberOfCells="         4096 ">
 <Points>
 <DataArray  type="Float64" NumberOfComponents="3"  format="ascii" >
   0.0000000000000000        0.0000000000000000        0.0000000000000000     
   1.5625000000000000E-002   0.0000000000000000        0.0000000000000000     
   3.1250000000000000E-002   0.0000000000000000        0.0000000000000000     
   4.6875000000000000E-002   0.0000000000000000        0.0000000000000000     
   6.2500000000000000E-002   0.0000000000000000        0.0000000000000000     
   0.0000000000000000        1.5625000000000000E-002   0.0000000000000000     
   1.5625000000000000E-002   1.5625000000000000E-002   0.0000000000000000     
   3.1250000000000000E-002   1.5625000000000000E-002   0.0000000000000000     
   4.6875000000000000E-002   1.5625000000000000E-002   0.0000000000000000     
   6.2500000000000000E-002   1.5625000000000000E-002   0.0000000000000000     
   0.0000000000000000        3.1250000000000000E-002   0.0000000000000000     
   1.5625000000000000E-002   3.1250000000000000E-002   0.0000000000000000     
   3.1250000000000000E-002   3.1250000000000000E-002   0.0000000000000000     
   4.6875000000000000E-002   3.1250000000000000E-002   0.0000000000000000     
   6.2500000000000000E-002   3.1250000000000000E-002   0.0000000000000000     
   0.0000000000000000        4.6875000000000000E-002   0.0000000000000000     
   1.5625000000000000E-002   4.6875000000000000E-002   0.0000000000000000     
   3.1250000000000000E-002   4.6875000000000000E-002   0.0000000000000000     
   4.6875000000000000E-002   4.6875000000000000E-002   0.0000000000000000     
   6.2500000000000000E-002   4.6875000000000000E-002   0.0000000000000000     
   0.0000000000000000        6.2500000000000000E-002   0.0000000000000000     
   1.5625000000000000E-002   6.2500000000000000E-002   0.0000000000000000     
   3.1250000000000000E-002   6.2500000000000000E-002   0.0000000000000000     
   4.6875000000000000E-002   6.2500000000000000E-002   0.0000000000000000     
   6.2500000000000000E-002   6.2500000000000000E-002   0.0000000000000000     
   6.2500000000000000E-002   0.0000000000000000        0.0000000000000000     
   7.8125000000000000E-002   0.0000000000000000        0.0000000000000000     
   9.3750000000000000E-002   0.0000000000000000        0.0000000000000000     
  0.10937500000000000        0.0000000000000000        0.0000000000000000     
  0.12500000000000000        0.0000000000000000        0.0000000000000000     
   6.2500000000000000E-002   1.5625000000000000E-002   0.0000000000000000     
   7.8125000000000000E-002   1.5625000000000000E-002   0.0000000000000000     
   9.3750000000000000E-002   1.5625000000000000E-002   0.0000000000000000     
  0.10937500000000000        1.5625000000000000E-002   0.0000000000000000     
  0.12500000000000000        1.5625000000000000E-002   0.0000000000000000     
   6.2500000000000000E-002   3.1250000000000000E-002   0.0000000000000000     
   7.8125000000000000E-002   3.1250000000000000E-002   0.0000000000000000     
   9.3750000000000000E-002   3.1250000000000000E-002   0.0000000000000000     
  0.10937500000000000        3.1250000000000000E-002   0.0000000000000000     
  0.12500000000000000        3.1250000000000000E-002   0.0000000000000000     
   6.2500000000000000E-002   4.6875000000000000E-002   0.0000000000000000     
   7.8125000000000000E-002   4.6875000000000000E-002   0.0000000000000000     
   9.3750000000000000E-002   4.6875000000000000E-002   0.0000000000000000     
  0.10937500000000000        4.6875000000000000E-002   0.0000000000000000     
  0.12500000000000000        4.6875000000000000E-002   0.0000000000000000     
   6.2500000000000000E-002   6.2500000000000000E-002   0.0000000000000000     
   7.8125000000000000E-002   6.2500000000000000E-002   0.0000000000000000     
   9.3750000000000000E-002   6.2500000000000000E-002   0.0000000000000000     
  0.10937500000000000        6.2500000000000000E-002   0.0000000000000000     
  0.12500000000000000        6.2500000000000000E-002   0.0000000000000000     
  0.12500000000000000        0.0000000000000000        0.0000000000000000     
  0.14062500000000000        0.0000000000000000        0.0000000000000000     
  0.15625000000000000        0.0000000000000000        0.0000000000000000     
  0.17187500000000000        0.0000000000000000        0.0000000000000000     
  0.18750000000000000        0.0000000000000000        0.0000000000000000     
  0.12500000000000000        1.5625000000000000E-002   0.0000000000000000     
  0.14062500000000000        1.5625000000000000E-002   0.0000000000000000     
  0.15625000000000000        1.5625000000000000E-002   0.0000000000000000     
  0.17187500000000000        1.5625000000000000E-002   0.0000000000000000     
  0.18750000000000000        1.5625000000000000E-002   0.0000000000000000     
  0.12500000000000000        3.1250000000000000E-002   0.0000000000000000     
  0.14062500000000000        3.1250000000000000E-002   0.0000000000000000     
  0.15625000000000000        3.1250000000000000E-002   0.0000000000000000     
  0.17187500000000000        3.1250000000000000E-002   0.0000000000000000     
  0.18750000000000000        3.1250000000000000E-002   0.0000000000000000     
  0.12500000000000000        4.6875000000000000E-002   0.0000000000000000     
  0.14062500000000000        4.6875000000000000E-002   0.0000000000000000     
  0.15625000000000000        4.6875000000000000E-002   0.0000000000000000     
  0.17187500000000000        4.6875000000000000E-002   0.0000000000000000     
  0.18750000000000000        4.6875000000000000E-002   0.0000000000000000     
  0.12500000000000000        6.2500000000000000E-002   0.0000000000000000     
  0.14062500000000000        6.2500000000000000E-002   0.0000000000000000     
  0.15625000000000000        6.2500000000000000E-002   0.0000000000000000     
  0.17187500000000000        6.2500000000000000E-002   0.0000000000000000     
  0.18750000000000000        6.2500000000000000E-002   0.0000000000000000     
  0.18750000000000000        0.0000000000000000        0.0000000000000000     
  0.20312500000000000        0.0000000000000000        0.0000000000000000     
  0.21875000000000000        0.0000000000000000        0.0000000000000000     
  0.23437500000000000        0.0000000000000000        0.0000000000000000     
  0.25000000000000000        0.0000000000000000        0.0000000000000000     
  0.18750000000000000        1.5625000000000000E-002   0.0000000000000000     
  0.20312500000000000        1.5625000000000000E-002   0.0000000000000000     
  0.21875000000000000        1.5625000000000000E-002   0.0000000000000000     
  0.23437500000000000        1.5625000000000000E-002   0.0000000000000000     
  0.25000000000000000        1.5625000000000000E-002   0.0000000000000000     
  0.18750000000000000        3.1250000000000000E-002   0.0000000000000000     
  0.20312500000000000        3.1250000000000000E-002   0.0000000000000000     
  0.21875000000000000        3.1250000000000000E-002   0.0000000000000000     
  0.23437500000000000        3.1250000000000000E-002   0.0000000000000000     
  0.25000000000000000        3.1250000000000000E-002   0.0000000000000000     
  0.18750000000000000        4.6875000000000000E-002   0.0000000000000000     
  0.20312500000000000        4.6875000000000000E-002   0.0000000000000000     
  0.21875000000000000        4.6875000000000000E-002   0.0000000000000000     
  0.23437500000000000        4.6875000000000000E-002   0.0000000000000000     
  0.25000000000000000        4.6875000000000000E-002   0.0000000000000000     
  0.18750000000000000        6.2500000000000000E-002   0.0000000000000000     
  0.20312500000000000        6.2500000000000000E-002   0.0000000000000000     
  0.21875000000000000        6.2500000000000000E-002   0.0000000000000000     
  0.23437500000000000        6.2500000000000000E-002   0.0000000000000000     
  0.25000000000000000        6.2500000000000000E-002   0.0000000000000000     
  0.25000000000000000        0.0000000000000000        0.0000000000000000     
  0.26562500000000000        0.0000000000000000        0.0000000000000000     
  0.28125000000000000        0.0000000000000000        0.0000000000000000     
  0.29687500000000000        0.0000000000000000        0.0000000000000000     
  0.31250000000000000        0.0000000000000000        0.0000000000000000     
  0.25000000000000000        1.5625000000000000E-002   0.0000000000000000     
  0.26562500000000000        1.5625000000000000E-002   0.0000000000000000     
  0.28125000000000000        1.5625000000000000E-002   0.0000000000000000     
  0.29687500000000000        1.5625000000000000E-002   0.0000000000000000     
  0.31250000000000000        1.5625000000000000E-002   0.0000000000000000     
  0.25000000000000000        3.1250000000000000E-002   0.0000000000000000     
  0.26562500000000000        3.1250000000000000E-002   0.0000000000000000     
  0.28125000000000000        3.1250000000000000E-002   0.0000000000000000     
  0.29687500000000000        3.1250000000000000E-002   0.0000000000000000     
  0.31250000000000000        3.1250000000000000E-002   0.0000000000000000     
  0.25000000000000000        4.6875000000000000E-002   0.0000000000000000     
  0.26562500000000000        4.6875000000000000E-002   0.0000000000000000     
  0.28125000000000000        4.6875000000000000E-002   0.0000000000000000     
  0.29687500000000000        4.6875000000000000E-002   0.0000000000000000     
  0.31250000000000000        4.6875000000000000E-002   0.0000000000000000     
  0.25000000000000000        6.2500000000000000E-002   0.0000000000000000     
  0.26562500000000000        6.2500000000000000E-002   0.0000000000000000     
  0.28125000000000000        6.2500000000000000E-002   0.0000000000000000     
[...]
 <PointData>
 <DataArray  type="Float64" Name="disp" NumberOfComponents="3" format="ascii">
   0.0000000000000000        0.0000000000000000        0.0000000000000000     
   3.5270518778235411E-003   2.2901219286145342E-003   0.0000000000000000     
   6.7198531286653332E-003   4.3368630396887209E-003   0.0000000000000000     
   9.5784037525253780E-003   6.1402233332225574E-003   0.0000000000000000     
   1.2102703749403674E-002   7.7002028092160455E-003   0.0000000000000000     
   0.0000000000000000        0.0000000000000000        0.0000000000000000     
   2.8660126547133602E-003   1.8522964289094702E-003   0.0000000000000000     
   5.5975410695432055E-003   3.6171504165286956E-003   0.0000000000000000     
   8.1945852444895370E-003   5.2945619628576744E-003   0.0000000000000000     
   1.0657145179552350E-002   6.8845310678964083E-003   0.0000000000000000     
   0.0000000000000000        0.0000000000000000        0.0000000000000000     
   2.3673786176615415E-003   1.5099542697966390E-003   0.0000000000000000     
   4.7345268952262917E-003   3.0442401716321271E-003   0.0000000000000000     
   7.1014448326942488E-003   4.6028577055064659E-003   0.0000000000000000     
   9.4681324300654145E-003   6.1858068714196537E-003   0.0000000000000000     
   0.0000000000000000        0.0000000000000000        0.0000000000000000     
   2.0311497666680852E-003   1.2630954512760405E-003   0.0000000000000000     
   4.1308106057145908E-003   2.6181323049990169E-003   0.0000000000000000     
   6.2989825171395151E-003   4.0651105611689302E-003   0.0000000000000000     
   8.5356655009428597E-003   5.6040302197857784E-003   0.0000000000000000     
   0.0000000000000000        0.0000000000000000        0.0000000000000000     
   1.8573261017329904E-003   1.1117199733476748E-003   0.0000000000000000     
   3.7863922010081025E-003   2.3388268166293640E-003   0.0000000000000000     
   5.7871982978253350E-003   3.6813205298450681E-003   0.0000000000000000     
   7.8597443921846893E-003   5.1392011129947849E-003   0.0000000000000000     
   1.2102703749403674E-002   7.7002028092160455E-003   0.0000000000000000     
   1.4435815503782983E-002   9.1484632236249926E-003   0.0000000000000000     
   1.6720801400146073E-002   1.0616666332405208E-002   0.0000000000000000     
   1.8957661438492941E-002   1.2104812135556689E-002   0.0000000000000000     
   2.1146395618823581E-002   1.3612900633079437E-002   0.0000000000000000     
   1.0657145179552350E-002   6.8845310678964083E-003   0.0000000000000000     
   1.3018277223929561E-002   8.4255135410453100E-003   0.0000000000000000     
   1.5311037726819068E-002   9.9559651917047950E-003   0.0000000000000000     
   1.7535426688220876E-002   1.1475886019874860E-002   0.0000000000000000     
   1.9691444108134986E-002   1.2985276025555510E-002   0.0000000000000000     
   9.4681324300654145E-003   6.1858068714196537E-003   0.0000000000000000     
   1.1797797774770585E-002   7.7689960122630051E-003   0.0000000000000000     
   1.4053648954240560E-002   9.3283334709278430E-003   0.0000000000000000     
   1.6235685968475338E-002   1.0863819247414161E-002   0.0000000000000000     
   1.8343908817474920E-002   1.2375453341721958E-002   0.0000000000000000     
   8.5356655009428597E-003   5.6040302197857784E-003   0.0000000000000000     
   1.0774377156306060E-002   7.1789106372780786E-003   0.0000000000000000     
   1.2948635082410545E-002   8.7337711700743500E-003   0.0000000000000000     
   1.5058439279256323E-002   1.0268611818174584E-002   0.0000000000000000     
   1.7103789746843387E-002   1.1783432581578787E-002   0.0000000000000000     
   7.8597443921846893E-003   5.1392011129947849E-003   0.0000000000000000     
   9.9480153685359823E-003   6.6552574160905296E-003   0.0000000000000000     
   1.1995996111329028E-002   8.1722782891443142E-003   0.0000000000000000     
   1.4003686620563829E-002   9.6902637321561336E-003   0.0000000000000000     
   1.5971086896240379E-002   1.1209213745125991E-002   0.0000000000000000     
   2.1146395618823581E-002   1.3612900633079437E-002   0.0000000000000000     
   2.3295521667157669E-002   1.5146740381224764E-002   0.0000000000000000     
   2.5413557309514868E-002   1.6712139936243983E-002   0.0000000000000000     
   2.7500502545895179E-002   1.8309099298137090E-002   0.0000000000000000     
   2.9556357376298602E-002   1.9937618466904089E-002   0.0000000000000000     
   1.9691444108134986E-002   1.2985276025555510E-002   0.0000000000000000     
   2.1797709338362677E-002   1.4509337447127981E-002   0.0000000000000000     
   2.3872841730705235E-002   1.6073272522973522E-002   0.0000000000000000     
   2.5916841285162653E-002   1.7677081253092124E-002   0.0000000000000000     
   2.7929708001734936E-002   1.9320763637483796E-002   0.0000000000000000     
   1.8343908817474920E-002   1.2375453341721958E-002   0.0000000000000000     
   2.0399688217207061E-002   1.3897317114194780E-002   0.0000000000000000     
   2.2424394883639506E-002   1.5463491925176171E-002   0.0000000000000000     
   2.4418028816772255E-002   1.7073977774666124E-002   0.0000000000000000     
   2.6380590016605306E-002   1.8728774662664649E-002   0.0000000000000000     
   1.7103789746843387E-002   1.1783432581578787E-002   0.0000000000000000     
   1.9101458303690814E-002   1.3310679382425167E-002   0.0000000000000000     
   2.1068216768317674E-002   1.4882798142851936E-002   0.0000000000000000     
   2.3004065140723968E-002   1.6499788862859091E-002   0.0000000000000000     
   2.4909003420909705E-002   1.8161651542446637E-002   0.0000000000000000     
   1.5971086896240379E-002   1.1209213745125991E-002   0.0000000000000000     
   1.7903019597813936E-002   1.2749424251819134E-002   0.0000000000000000     
   1.9804307384739747E-002   1.4331191176000813E-002   0.0000000000000000     
   2.1674950257017815E-002   1.5954514517671027E-002   0.0000000000000000     
   2.3514948214648133E-002   1.7619394276829778E-002   0.0000000000000000     
   2.9556357376298602E-002   1.9937618466904089E-002   0.0000000000000000     
   3.1582895364897570E-002   2.1606756493187523E-002   0.0000000000000000     
   3.3581890075864540E-002   2.3325572427629931E-002   0.0000000000000000     
   3.5553341509199504E-002   2.5094066270231315E-002   0.0000000000000000     
   3.7497249664902449E-002   2.6912238020991679E-002   0.0000000000000000     
   2.7929708001734936E-002   1.9320763637483796E-002   0.0000000000000000     
   2.9912317490953980E-002   2.1007344218269088E-002   0.0000000000000000     
   3.1865545363351663E-002   2.2739847537568553E-002   0.0000000000000000     
   3.3789391618927994E-002   2.4518273595382185E-002   0.0000000000000000     
   3.5683856257682986E-002   2.6342622391709997E-002   0.0000000000000000     
   2.6380590016605306E-002   1.8728774662664649E-002   0.0000000000000000     
   2.8312712513935707E-002   2.0427737991940559E-002   0.0000000000000000     
   3.0215030339560498E-002   2.2170723165262699E-002   0.0000000000000000     
   3.2087543493479677E-002   2.3957730182631056E-002   0.0000000000000000     
   3.3930251975693243E-002   2.5788759044045640E-002   0.0000000000000000     
   2.4909003420909705E-002   1.8161651542446637E-002   0.0000000000000000     
   2.6784080433842766E-002   1.9867937814201944E-002   0.0000000000000000     
   2.8630345004491041E-002   2.1618199310712374E-002   0.0000000000000000     
   3.0447797132854532E-002   2.3412436031977929E-002   0.0000000000000000     
   3.2236436818933241E-002   2.5250647977998610E-002   0.0000000000000000     
   2.3514948214648133E-002   1.7619394276829778E-002   0.0000000000000000     
   2.5326421250675146E-002   1.9327943685053233E-002   0.0000000000000000     
   2.7111489358143288E-002   2.1082275973917576E-002   0.0000000000000000     
   2.8870152537052565E-002   2.2882391143422800E-002   0.0000000000000000     
   3.0602410787402976E-002   2.4728289193568904E-002   0.0000000000000000     
   3.7497249664902449E-002   2.6912238020991679E-002   0.0000000000000000     
   3.9415813807386610E-002   2.8780456799258246E-002   0.0000000000000000     
   4.1311233201065167E-002   3.0699091724378260E-002   0.0000000000000000     
   4.3183507845938128E-002   3.2668142796351718E-002   0.0000000000000000     
   4.5032637742005499E-002   3.4687610015178616E-002   0.0000000000000000     
   3.5683856257682986E-002   2.6342622391709997E-002   0.0000000000000000     
   3.7551876181439063E-002   2.8215580393218219E-002   0.0000000000000000     
   3.9396388292018678E-002   3.0139834066573092E-002   0.0000000000000000     
   4.1217392589421850E-002   3.2115383411774619E-002   0.0000000000000000     
   4.3014889073648560E-002   3.4142228428822800E-002   0.0000000000000000     
   3.3930251975693243E-002   2.5788759044045640E-002   0.0000000000000000     
   3.5746196609377640E-002   2.7667619062502480E-002   0.0000000000000000     
   3.7538418217709306E-002   2.9598119550997594E-002   0.0000000000000000     
   3.9306916800688221E-002   3.1580260509530993E-002   0.0000000000000000     
   4.1051692358314407E-002   3.3614041938102683E-002   0.0000000000000000     
   3.2236436818933241E-002   2.5250647977998610E-002   0.0000000000000000     
   3.3998775091202339E-002   2.7136572807111022E-002   0.0000000000000000     
   3.5737322978137011E-002   2.9073948177651771E-002   0.0000000000000000     
   3.7452080479737235E-002   3.1062774089620850E-002   0.0000000000000000     
   3.9143047596003025E-002   3.3103050543018271E-002   0.0000000000000000     
   3.0602410787402976E-002   2.4728289193568904E-002   0.0000000000000000     
   3.2309611626913169E-002   2.6622441627043858E-002   0.0000000000000000     
   3.3993102573301813E-002   2.8567319946535618E-002   0.0000000000000000     
   3.5652883626568897E-002   3.0562924152044181E-002   0.0000000000000000     
   3.7288954786714422E-002   3.2609254243569565E-002   0.0000000000000000     
   4.5032637742005499E-002   3.4687610015178616E-002   0.0000000000000000     
   4.6858538037363347E-002   3.6757579621011713E-002   0.0000000000000000     
   4.8661123880107744E-002   3.8878137854003750E-002   0.0000000000000000     
   5.0440395270238692E-002   4.1049284714154734E-002   0.0000000000000000     
   5.2196352207756189E-002   4.3271020201464665E-002   0.0000000000000000     
   4.3014889073648560E-002   3.4142228428822800E-002   0.0000000000000000     
   4.4789014647748038E-002   3.6219998122476241E-002   0.0000000000000000     
   4.6539906214769479E-002   3.8348321497493537E-002   0.0000000000000000     
   4.8267563774712884E-002   4.0527198553874703E-002   0.0000000000000000     
   4.9971987327578266E-002   4.2756629291619733E-002   0.0000000000000000     
   4.1051692358314407E-002   3.3614041938102683E-002   0.0000000000000000     
   4.2773085223193431E-002   3.5698998335430290E-002   0.0000000000000000     
   4.4471435727930886E-002   3.7834664200231460E-002   0.0000000000000000     
   4.6146743872526756E-002   4.0021039532506186E-002   0.0000000000000000     
   4.7799009656981049E-002   4.2258124332254482E-002   0.0000000000000000     
   3.9143047596003025E-002   3.3103050543018271E-002   0.0000000000000000     
   4.0810749763699548E-002   3.5194580259873876E-002   0.0000000000000000     
   4.2455712419591979E-002   3.7337165962217513E-002   0.0000000000000000     
   4.4077935563680323E-002   3.9530807650049189E-002   0.0000000000000000     
   4.5677419195964568E-002   4.1775505323368912E-002   0.0000000000000000     
   3.7288954786714422E-002   3.2609254243569565E-002   0.0000000000000000     
   3.8902008269266382E-002   3.4706743895806989E-002   0.0000000000000000     
   4.0492736289752765E-002   3.6855826783451708E-002   0.0000000000000000     
   4.2061138848173571E-002   3.9056502906503719E-002   0.0000000000000000     
   4.3607215944528793E-002   4.1308772264963031E-002   0.0000000000000000     
   5.2196352207756189E-002   4.3271020201464665E-002   0.0000000000000000     
   5.3930020208187414E-002   4.5546467458362952E-002   0.0000000000000000     
   5.5642424787059545E-002   4.7878749627279032E-002   0.0000000000000000     
   5.7333565944372604E-002   5.0267866708212872E-002   0.0000000000000000     
   5.9003443680126569E-002   5.2713818701164504E-002   0.0000000000000000     
   4.9971987327578266E-002   4.2756629291619733E-002   0.0000000000000000     
   5.1653645409069950E-002   4.5039160778042438E-002   0.0000000000000000     
   5.3313006554892267E-002   4.7377340080456631E-002   0.0000000000000000     
   5.4950070765045239E-002   4.9771167198862300E-002   0.0000000000000000     
   5.6564838039528845E-002   5.2220642133259471E-002   0.0000000000000000     
   4.7799009656981049E-002   4.2258124332254482E-002   0.0000000000000000     
   4.9428359651343332E-002   4.4547758816614290E-002   0.0000000000000000     
   5.1034920425663127E-002   4.6891783202723566E-002   0.0000000000000000     
   5.2618691979940471E-002   4.9290197490582319E-002   0.0000000000000000     
   5.4179674314175336E-002   5.1743001680190553E-002   0.0000000000000000     
   4.5677419195964568E-002   4.1775505323368912E-002   0.0000000000000000     
   4.7254162935007560E-002   4.4072261574078508E-002   0.0000000000000000     
   4.8808166399372140E-002   4.6422078994079852E-002   0.0000000000000000     
   5.0339429589058286E-002   4.8824957583372929E-002   0.0000000000000000     
   5.1847952504066042E-002   5.1280897341957732E-002   0.0000000000000000     
   4.3607215944528793E-002   4.1308772264963031E-002   0.0000000000000000     
   4.5131055260062634E-002   4.3612669050435121E-002   0.0000000000000000     
   4.6632744476019269E-002   4.5968227454525487E-002   0.0000000000000000     
   4.8112283592398705E-002   4.8375447477234129E-002   0.0000000000000000     
   4.9569672609200935E-002   5.0834329118561040E-002   0.0000000000000000     
   5.9003443680126569E-002   5.2713818701164504E-002   0.0000000000000000     
   6.0642130209779724E-002   5.5209624424816334E-002   0.0000000000000000     
   6.2239697748790360E-002   5.7748302697850758E-002   0.0000000000000000     
   6.3796146297158476E-002   6.0329853520267797E-002   0.0000000000000000     
   6.5311475854884060E-002   6.2954276892067451E-002   0.0000000000000000     
   5.6564838039528845E-002   5.2220642133259471E-002   0.0000000000000000     
   5.8157107031256643E-002   5.4720031815139757E-002   0.0000000000000000     
   5.9726676393142143E-002   5.7263603175994819E-002   0.0000000000000000     
   6.1273546125185367E-002   5.9851356215824637E-002   0.0000000000000000     
   6.2797716227386308E-002   6.2483290934629218E-002   0.0000000000000000     
   5.4179674314175336E-002   5.1743001680190553E-002   0.0000000000000000     
   5.5723172289077520E-002   5.4245646603273724E-002   0.0000000000000000     
   5.7254490765356783E-002   5.6793583091557347E-002   0.0000000000000000     
   5.8773629743013131E-002   5.9386811145041386E-002   0.0000000000000000     
   6.0280589222046571E-002   6.2025330763725878E-002   0.0000000000000000     
   5.1847952504066042E-002   5.1280897341957732E-002   0.0000000000000000     
   5.3340325983242363E-002   5.3786468789218222E-002   0.0000000000000000     
   5.4823140865434286E-002   5.6338242444538326E-002   0.0000000000000000     
   5.6296397150641775E-002   5.8936218307918072E-002   0.0000000000000000     
   5.7760094838864878E-002   6.1580396379357430E-002   0.0000000000000000     
   4.9569672609200935E-002   5.0834329118561040E-002   0.0000000000000000     
   5.1008568113751179E-002   5.3342498372973252E-002   0.0000000000000000     
   5.2432626693374645E-002   5.5897581234937800E-002   0.0000000000000000     
   5.3841848348071313E-002   5.8499577704454679E-002   0.0000000000000000     
   5.5236233077841208E-002   6.1148487781523889E-002   0.0000000000000000     
   6.5311475854884060E-002   6.2954276892067451E-002   0.0000000000000000     
   6.6803429752316359E-002   6.5620880914034799E-002   0.0000000000000000     
   6.8289751319804623E-002   6.8328973686954980E-002   0.0000000000000000     
   6.9770440557348837E-002   7.1078555210827954E-002   0.0000000000000000     
   7.1245497464949015E-002   7.3869625485653734E-002   0.0000000000000000     
   6.2797716227386308E-002   6.2483290934629218E-002   0.0000000000000000     
   6.4299719804366745E-002   6.5158351864197953E-002   0.0000000000000000     
   6.5780089960748522E-002   6.7875483536320252E-002   0.0000000000000000     
   6.7238826696531598E-002   7.0634685950996118E-002   0.0000000000000000     
   6.8675930011715999E-002   7.3435959108225535E-002   0.0000000000000000     
   6.0280589222046571E-002   6.2025330763725878E-002   0.0000000000000000     
   6.1766258789232281E-002   6.4707954996005054E-002   0.0000000000000000     
   6.3221528031345453E-002   6.7433496890273184E-002   0.0000000000000000     
   6.4646396948386087E-002   7.0201956446530253E-002   0.0000000000000000     
   6.6040865540354168E-002   7.3013333664776262E-002   0.0000000000000000     
   5.7760094838864878E-002   6.1580396379357430E-002   0.0000000000000000     
   5.9203046706912954E-002   6.4269690309456104E-002   0.0000000000000000     
   6.0614065531595429E-002   6.7003013748813706E-002   0.0000000000000000     
   6.1993151312912276E-002   6.9780366697430332E-002   0.0000000000000000     
   6.3340304050863522E-002   7.2601749155305900E-002   0.0000000000000000     
   5.5236233077841208E-002   6.1148487781523889E-002   0.0000000000000000     
   5.6610083557408757E-002   6.3843557804551088E-002   0.0000000000000000     
   5.7957702461498416E-002   6.6584034111941914E-002   0.0000000000000000     
   5.9279089790110172E-002   6.9369916703696355E-002   0.0000000000000000     
   6.0574245543244046E-002   7.2201205579814451E-002   0.0000000000000000     
   7.1245497464949015E-002   7.3869625485653734E-002   0.0000000000000000     
   7.2705730419673834E-002   7.6707682166825081E-002   0.0000000000000000     
   7.4141947798591970E-002   7.9598222909734784E-002   0.0000000000000000     
   7.5554149601703410E-002   8.2541247714382829E-002   0.0000000000000000     
   7.6942335829008168E-002   8.5536756580769230E-002   0.0000000000000000     
   6.8675930011715999E-002   7.3435959108225535E-002   0.0000000000000000     
   7.0090978449683872E-002   7.6283968671073371E-002   0.0000000000000000     
   7.1483550553817346E-002   7.9183380302604453E-002   0.0000000000000000     
   7.2853646324116450E-002   8.2134194002818808E-002   0.0000000000000000     
   7.4201265760581170E-002   8.5136409771716437E-002   0.0000000000000000     
   6.6040865540354168E-002   7.3013333664776262E-002   0.0000000000000000     
   6.7409466208212782E-002   7.5871256437990087E-002   0.0000000000000000     
   6.8756731352924955E-002   7.8779352659150578E-002   0.0000000000000000     
   7.0082660974490715E-002   8.1737622328257750E-002   0.0000000000000000     
   7.1387255072910050E-002   8.4746065445311561E-002   0.0000000000000000     
   6.3340304050863522E-002   7.2601749155305900E-002   0.0000000000000000     
   6.4661193695260563E-002   7.5469545467575241E-002   0.0000000000000000     
   6.5961490195914782E-002   7.8386139979373159E-002   0.0000000000000000     
   6.7241193552826206E-002   8.1351532690699599E-002   0.0000000000000000     
   6.8500303765994849E-002   8.4365723601554601E-002   0.0000000000000000     
   6.0574245543244046E-002   7.2201205579814451E-002   0.0000000000000000     
   6.1846160910827210E-002   7.5078835759828835E-002   0.0000000000000000     
   6.3097827082786842E-002   7.8003742263272141E-002   0.0000000000000000     
   6.4329244059122950E-002   8.0975925090144410E-002   0.0000000000000000     
   6.5540411839835541E-002   8.3995384240445600E-002   0.0000000000000000     
   7.6942335829008168E-002   8.5536756580769230E-002   0.0000000000000000     
   7.8306485242492174E-002   8.8579447238116088E-002   0.0000000000000000     