 <VTKFile type="UnstructuredGrid"  version="0.1"   >
 <UnstructuredGrid>
 <Piece  NumberOfPoints="          1600 "  NumberOfCells="         1024 ">
 <Points>
 <DataArray  type="Float64" NumberOfComponents="3"  format="ascii" >
   0.0000000000000000        0.0000000000000000        0.0000000000000000     
   3.1250000000000000E-002   0.0000000000000000        0.0000000000000000     
   6.2500000000000000E-002   0.0000000000000000        0.0000000000000000     
   9.3750000000000000E-002   0.0000000000000000        0.0000000000000000     
  0.12500000000000000        0.0000000000000000        0.0000000000000000     
   0.0000000000000000        3.1250000000000000E-002   0.0000000000000000     
   3.1250000000000000E-002   3.1250000000000000E-002   0.0000000000000000     
   6.2500000000000000E-002   3.1250000000000000E-002   0.0000000000000000     
   9.3750000000000000E-002   3.1250000000000000E-002   0.0000000000000000     
  0.12500000000000000        3.1250000000000000E-002   0.0000000000000000     
   0.0000000000000000        6.2500000000000000E-002   0.0000000000000000     
   3.1250000000000000E-002   6.2500000000000000E-002   0.0000000000000000     
   6.2500000000000000E-002   6.2500000000000000E-002   0.0000000000000000     
   9.3750000000000000E-002   6.2500000000000000E-002   0.0000000000000000     
  0.12500000000000000        6.2500000000000000E-002   0.0000000000000000     
   0.0000000000000000        9.3750000000000000E-002   0.0000000000000000     
   3.1250000000000000E-002   9.3750000000000000E-002   0.0000000000000000     
   6.2500000000000000E-002   9.3750000000000000E-002   0.0000000000000000     
   9.3750000000000000E-002   9.3750000000000000E-002   0.0000000000000000     
  0.12500000000000000        9.3750000000000000E-002   0.0000000000000000     
   0.0000000000000000       0.12500000000000000        0.0000000000000000     
   3.1250000000000000E-002  0.12500000000000000        0.0000000000000000     
   6.2500000000000000E-002  0.12500000000000000        0.0000000000000000     
   9.3750000000000000E-002  0.12500000000000000        0.0000000000000000     
  0.12500000000000000       0.12500000000000000        0.0000000000000000     
  0.12500000000000000        0.0000000000000000        0.0000000000000000     
  0.15625000000000000        0.0000000000000000        0.0000000000000000     
  0.18750000000000000        0.0000000000000000        0.0000000000000000     
  0.21875000000000000        0.0000000000000000        0.0000000000000000     
  0.25000000000000000        0.0000000000000000        0.0000000000000000     
  0.12500000000000000        3.1250000000000000E-002   0.0000000000000000     
  0.15625000000000000        3.1250000000000000E-002   0.0000000000000000     
  0.18750000000000000        3.1250000000000000E-002   0.0000000000000000     
  0.21875000000000000        3.1250000000000000E-002   0.0000000000000000     
  0.25000000000000000        3.1250000000000000E-002   0.0000000000000000     
  0.12500000000000000        6.2500000000000000E-002   0.0000000000000000     
  0.15625000000000000        6.2500000000000000E-002   0.0000000000000000     
  0.18750000000000000        6.2500000000000000E-002   0.0000000000000000     
  0.21875000000000000        6.2500000000000000E-002   0.0000000000000000     
  0.25000000000000000        6.2500000000000000E-002   0.0000000000000000     
  0.12500000000000000        9.3750000000000000E-002   0.0000000000000000     
  0.15625000000000000        9.3750000000000000E-002   0.0000000000000000     
  0.18750000000000000        9.3750000000000000E-002   0.0000000000000000     
  0.21875000000000000        9.3750000000000000E-002   0.0000000000000000     
  0.25000000000000000        9.3750000000000000E-002   0.0000000000000000     
  0.12500000000000000       0.12500000000000000        0.0000000000000000     
  0.15625000000000000       0.12500000000000000        0.0000000000000000     
  0.18750000000000000       0.12500000000000000        0.0000000000000000     
  0.21875000000000000       0.12500000000000000        0.0000000000000000     
  0.25000000000000000       0.12500000000000000        0.0000000000000000     
  0.25000000000000000        0.0000000000000000        0.0000000000000000     
  0.28125000000000000        0.0000000000000000        0.0000000000000000     
  0.31250000000000000        0.0000000000000000        0.0000000000000000     
  0.34375000000000000        0.0000000000000000        0.0000000000000000     
  0.37500000000000000        0.0000000000000000        0.0000000000000000     
  0.25000000000000000        3.1250000000000000E-002   0.0000000000000000     
  0.28125000000000000        3.1250000000000000E-002   0.0000000000000000     
  0.31250000000000000        3.1250000000000000E-002   0.0000000000000000     
  0.34375000000000000        3.1250000000000000E-002   0.0000000000000000     
  0.37500000000000000        3.1250000000000000E-002   0.0000000000000000     
  0.25000000000000000        6.2500000000000000E-002   0.0000000000000000     
  0.28125000000000000        6.2500000000000000E-002   0.0000000000000000     
  0.31250000000000000        6.2500000000000000E-002   0.0000000000000000     
  0.34375000000000000        6.2500000000000000E-002   0.0000000000000000     
  0.37500000000000000        6.2500000000000000E-002   0.0000000000000000     
  0.25000000000000000        9.3750000000000000E-002   0.0000000000000000     
  0.28125000000000000        9.3750000000000000E-002   0.0000000000000000     
  0.31250000000000000        9.3750000000000000E-002   0.0000000000000000     
  0.34375000000000000        9.3750000000000000E-002   0.0000000000000000     
  0.37500000000000000        9.3750000000000000E-002   0.0000000000000000     
  0.25000000000000000       0.12500000000000000        0.0000000000000000     
  0.28125000000000000       0.12500000000000000        0.0000000000000000     
  0.31250000000000000       0.12500000000000000        0.0000000000000000     
  0.34375000000000000       0.12500000000000000        0.0000000000000000     
  0.37500000000000000       0.12500000000000000        0.0000000000000000     
  0.37500000000000000        0.0000000000000000        0.0000000000000000     
  0.40625000000000000        0.0000000000000000        0.0000000000000000     
  0.43750000000000000        0.0000000000000000        0.0000000000000000     
  0.46875000000000000        0.0000000000000000        0.0000000000000000     
  0.50000000000000000        0.0000000000000000        0.0000000000000000     
  0.37500000000000000        3.1250000000000000E-002   0.0000000000000000     
  0.40625000000000000        3.1250000000000000E-002   0.0000000000000000     
  0.43750000000000000        3.1250000000000000E-002   0.0000000000000000     
  0.46875000000000000        3.1250000000000000E-002   0.0000000000000000     
  0.50000000000000000        3.1250000000000000E-002   0.0000000000000000     
  0.37500000000000000        6.2500000000000000E-002   0.0000000000000000     
  0.40625000000000000        6.2500000000000000E-002   0.0000000000000000     
  0.43750000000000000        6.2500000000000000E-002   0.0000000000000000     
  0.46875000000000000        6.2500000000000000E-002   0.0000000000000000     
  0.50000000000000000        6.2500000000000000E-002   0.0000000000000000     
  0.37500000000000000        9.3750000000000000E-002   0.0000000000000000     
  0.40625000000000000        9.3750000000000000E-002   0.0000000000000000     
  0.43750000000000000        9.3750000000000000E-002   0.0000000000000000     
  0.46875000000000000        9.3750000000000000E-002   0.0000000000000000     
  0.50000000000000000        9.3750000000000000E-002   0.0000000000000000     
  0.37500000000000000       0.12500000000000000        0.0000000000000000     
  0.40625000000000000       0.12500000000000000        0.0000000000000000     
  0.43750000000000000       0.12500000000000000        0.0000000000000000     
  0.46875000000000000       0.12500000000000000        0.0000000000000000     
  0.50000000000000000       0.12500000000000000        0.0000000000000000     
  0.50000000000000000        0.0000000000000000        0.0000000000000000     
  0.53125000000000000        0.0000000000000000        0.0000000000000000     
  0.56250000000000000        0.0000000000000000        0.0000000000000000     
  0.59375000000000000        0.0000000000000000        0.0000000000000000     
  0.62500000000000000        0.0000000000000000        0.0000000000000000     
  0.50000000000000000        3.1250000000000000E-002   0.0000000000000000     
  0.53125000000000000        3.1250000000000000E-002   0.0000000000000000     
  0.56250000000000000        3.1250000000000000E-002   0.0000000000000000     
  0.59375000000000000        3.1250000000000000E-002   0.0000000000000000     
  0.62500000000000000        3.1250000000000000E-002   0.0000000000000000     
  0.50000000000000000        6.2500000000000000E-002   0.0000000000000000     
  0.53125000000000000        6.2500000000000000E-002   0.0000000000000000     
  0.56250000000000000        6.2500000000000000E-002   0.0000000000000000     
  0.59375000000000000        6.2500000000000000E-002   0.0000000000000000     
  0.62500000000000000        6.2500000000000000E-002   0.0000000000000000     
  0.50000000000000000        9.3750000000000000E-002   0.0000000000000000     
  0.53125000000000000        9.3750000000000000E-002   0.0000000000000000     
  0.56250000000000000        9.3750000000000000E-002   0.0000000000000000     
  0.59375000000000000        9.3750000000000000E-002   0.0000000000000000     
  0.62500000000000000        9.3750000000000000E-002   0.0000000000000000     
  0.50000000000000000       0.12500000000000000        0.0000000000000000     
  0.53125000000000000       0.12500000000000000        0.0000000000000000     
  0.56250000000000000       0.12500000000000000        0.0000000000000000     
[...]
 <PointData>
 <DataArray  type="Float64" Name="disp" NumberOfComponents="3" format="ascii">
   0.0000000000000000        0.0000000000000000        0.0000000000000000     
   6.0968876331726511E-003   3.7856823290221718E-003   0.0000000000000000     
   1.1667462347947896E-002   7.3177581263696168E-003   0.0000000000000000     
   1.6711724144325736E-002   1.0596227392042336E-002   0.0000000000000000     
   2.1229673022306165E-002   1.3621090126040326E-002   0.0000000000000000     
   0.0000000000000000        0.0000000000000000        0.0000000000000000     
   4.8915580071446823E-003   3.0192534806746871E-003   0.0000000000000000     
   9.5744460023786185E-003   6.0563911217576191E-003   0.0000000000000000     
   1.4048663985701811E-002   9.1114129232487961E-003   0.0000000000000000     
   1.8314211957114256E-002   1.2184318885148218E-002   0.0000000000000000     
   0.0000000000000000        0.0000000000000000        0.0000000000000000     
   3.9537079499778454E-003   2.4236033250609433E-003   0.0000000000000000     
   7.9110309259761181E-003   5.0601729923197584E-003   0.0000000000000000     
   1.1871968927994820E-002   7.9097090017764445E-003   0.0000000000000000     
   1.5836521956033946E-002   1.0972211353431002E-002   0.0000000000000000     
   0.0000000000000000        0.0000000000000000        0.0000000000000000     
   3.2833374616721405E-003   1.9987318621809405E-003   0.0000000000000000     
   6.6772171187403926E-003   4.3291037380560329E-003   0.0000000000000000     
   1.0181638971204755E-002   6.9911156276252781E-003   0.0000000000000000     
   1.3796603019065230E-002   9.9847675308886753E-003   0.0000000000000000     
   0.0000000000000000        0.0000000000000000        0.0000000000000000     
   2.8804465422275676E-003   1.7446390920346777E-003   0.0000000000000000     
   5.8730045806714426E-003   3.8631833589664434E-003   0.0000000000000000     
   8.9776741153316224E-003   6.3556328007952963E-003   0.0000000000000000     
   1.2194455146208111E-002   9.2219874175212390E-003   0.0000000000000000     
   2.1229673022306165E-002   1.3621090126040326E-002   0.0000000000000000     
   2.5435392871286423E-002   1.6618070854550963E-002   0.0000000000000000     
   2.9542967580663739E-002   1.9812894103761611E-002   0.0000000000000000     
   3.3552397150438118E-002   2.3205559873672277E-002   0.0000000000000000     
   3.7463681580609559E-002   2.6796068164282962E-002   0.0000000000000000     
   1.8314211957114256E-002   1.2184318885148218E-002   0.0000000000000000     
   2.2410323561760231E-002   1.5341108750992970E-002   0.0000000000000000     
   2.6376232444784008E-002   1.8647782264320137E-002   0.0000000000000000     
   3.0211938606185592E-002   2.2104339425129713E-002   0.0000000000000000     
   3.3917442045964974E-002   2.5710780233421708E-002   0.0000000000000000     
   1.5836521956033946E-002   1.0972211353431002E-002   0.0000000000000000     
   1.9733899805767167E-002   1.4206102282543964E-002   0.0000000000000000     
   2.3493312272868154E-002   1.7569804024375860E-002   0.0000000000000000     
   2.7114759357336902E-002   2.1063316578926697E-002   0.0000000000000000     
   3.0598241059173411E-002   2.4686639946196461E-002   0.0000000000000000     
   1.3796603019065230E-002   9.9847675308886753E-003   0.0000000000000000     
   1.7406121603307234E-002   1.3213051449203938E-002   0.0000000000000000     
   2.0894207064916178E-002   1.6578959383928785E-002   0.0000000000000000     
   2.4260859403892058E-002   2.0082491335063211E-002   0.0000000000000000     
   2.7506078620234884E-002   2.3723647302607221E-002   0.0000000000000000     
   1.2194455146208111E-002   9.2219874175212390E-003   0.0000000000000000     
   1.5426988954380423E-002   1.2361956250972899E-002   0.0000000000000000     
   1.8578916820928069E-002   1.5675248342978912E-002   0.0000000000000000     
   2.1650238745851053E-002   1.9161863693539279E-002   0.0000000000000000     
   2.4640954729149376E-002   2.2821802302653994E-002   0.0000000000000000     
   3.7463681580609559E-002   2.6796068164282962E-002   0.0000000000000000     
   4.1278221522373836E-002   3.0588656088768415E-002   0.0000000000000000     
   4.4997417626926751E-002   3.4587560760303386E-002   0.0000000000000000     
   4.8621269894268279E-002   3.8792782178887875E-002   0.0000000000000000     
   5.2149778324398439E-002   4.3204320344521881E-002   0.0000000000000000     
   3.3917442045964974E-002   2.5710780233421708E-002   0.0000000000000000     
   3.7511318220113471E-002   2.9499607766236301E-002   0.0000000000000000     
   4.1012142584622401E-002   3.3503325100613664E-002   0.0000000000000000     
   4.4419915139491749E-002   3.7721932236553804E-002   0.0000000000000000     
   4.7734635884721530E-002   4.2155429174056715E-002   0.0000000000000000     
   3.0598241059173411E-002   2.4686639946196461E-002   0.0000000000000000     
   3.3967396851419016E-002   2.8483913467194526E-002   0.0000000000000000     
   3.7245866207115022E-002   3.2499276482930252E-002   0.0000000000000000     
   4.0433649126261434E-002   3.6732728993403629E-002   0.0000000000000000     
   4.3530745608858251E-002   4.1184270998614665E-002   0.0000000000000000     
   2.7506078620234884E-002   2.3723647302607221E-002   0.0000000000000000     
   3.0646457416290466E-002   2.7541573191643104E-002   0.0000000000000000     
   3.3698588494404602E-002   3.1575414907253151E-002   0.0000000000000000     
   3.6662471854577321E-002   3.5825172449437344E-002   0.0000000000000000     
   3.9538107496808597E-002   4.0290845818195718E-002   0.0000000000000000     
   2.4640954729149376E-002   2.2821802302653994E-002   0.0000000000000000     
   2.7548499914727815E-002   2.6672586939582032E-002   0.0000000000000000     
   3.0370309446491165E-002   3.0731740373582356E-002   0.0000000000000000     
   3.3106383324439423E-002   3.4999262604654968E-002   0.0000000000000000     
   3.5756721548572588E-002   3.9475153632799874E-002   0.0000000000000000     
   5.2149778324398439E-002   4.3204320344521881E-002   0.0000000000000000     
   5.5596966987409430E-002   4.7820307255144932E-002   0.0000000000000000     
   5.8976859953393440E-002   5.2638874908696551E-002   0.0000000000000000     
   6.2289457222350492E-002   5.7660023305176736E-002   0.0000000000000000     
   6.5534758794280557E-002   6.2883752444585495E-002   0.0000000000000000     
   4.7734635884721530E-002   4.2155429174056715E-002   0.0000000000000000     
   5.0976116544414377E-002   4.6801352115983533E-002   0.0000000000000000     
   5.4164168842672909E-002   5.1657237265195374E-002   0.0000000000000000     
   5.7298792779497121E-002   5.6723084621692253E-002   0.0000000000000000     
   6.0379988354887032E-002   6.1998894185474149E-002   0.0000000000000000     
   4.3530745608858251E-002   4.1184270998614665E-002   0.0000000000000000     
   4.6561322137627016E-002   4.5853270193331318E-002   0.0000000000000000     
   4.9549545195289257E-002   5.0739094272321560E-002   0.0000000000000000     
   5.2495414781844982E-002   5.5841743235585384E-002   0.0000000000000000     
   5.5398930897294189E-002   6.1161217083122790E-002   0.0000000000000000     
   3.9538107496808597E-002   4.0290845818195718E-002   0.0000000000000000     
   4.2352583767047369E-002   4.4976061487188274E-002   0.0000000000000000     
   4.5132989011242526E-002   4.9884445930075079E-002   0.0000000000000000     
   4.7879323229394088E-002   5.5015999146856120E-002   0.0000000000000000     
   5.0591586421502036E-002   6.0370721137531405E-002   0.0000000000000000     
   3.5756721548572588E-002   3.9475153632799874E-002   0.0000000000000000     
   3.8349901432675429E-002   4.4169725997554414E-002   0.0000000000000000     
   4.0914500290532702E-002   4.9093292238455946E-002   0.0000000000000000     
   4.3450518122144427E-002   5.4245852355504470E-002   0.0000000000000000     
   4.5957954927510578E-002   5.9627406348699993E-002   0.0000000000000000     
   6.5534758794280557E-002   6.2883752444585495E-002   0.0000000000000000     
   6.8573080903185160E-002   6.8219207599829079E-002   0.0000000000000000     
   7.1264739783065773E-002   7.3575534043813826E-002   0.0000000000000000     
   7.3609735433922421E-002   7.8952731776539664E-002   0.0000000000000000     
   7.5608067855755051E-002   8.4350800798006664E-002   0.0000000000000000     
   6.0379988354887032E-002   6.1998894185474149E-002   0.0000000000000000     
   6.3261607154288857E-002   6.7390529120964660E-002   0.0000000000000000     
   6.5797500763148858E-002   7.2803852592587343E-002   0.0000000000000000     
   6.7987669181466995E-002   7.8238864600342212E-002   0.0000000000000000     
   6.9832112409243294E-002   8.3695565144229267E-002   0.0000000000000000     
   5.5398930897294189E-002   6.1161217083122790E-002   0.0000000000000000     
   5.8112002481571397E-002   6.6601480542925529E-002   0.0000000000000000     
   6.0486538474611093E-002   7.2066498342985397E-002   0.0000000000000000     
   6.2522538876413292E-002   7.7556270483302339E-002   0.0000000000000000     
   6.4220003686978014E-002   8.3070796963876384E-002   0.0000000000000000     
   5.0591586421502036E-002   6.0370721137531405E-002   0.0000000000000000     
   5.3124266885032717E-002   6.5852061865711742E-002   0.0000000000000000     
   5.5331852917452483E-002   7.1363471295007974E-002   0.0000000000000000     
   5.7214344518761312E-002   7.6904949425420061E-002   0.0000000000000000     
   5.8771741688959218E-002   8.2476496256948015E-002   0.0000000000000000     
   4.5957954927510578E-002   5.9627406348699993E-002   0.0000000000000000     
   4.8298400364672887E-002   6.5142273089323272E-002   0.0000000000000000     
   5.0333444091673042E-002   7.0694771448655061E-002   0.0000000000000000     
   5.2063086108511049E-002   7.6284901426695376E-002   0.0000000000000000     
   5.3487326415186914E-002   8.1912663023444202E-002   0.0000000000000000     
   7.5608067855755051E-002   8.4350800798006664E-002   0.0000000000000000     
   7.7561545896683737E-002   8.9992495682306467E-002   0.0000000000000000     
   7.9771978404828428E-002   9.6100571003530824E-002   0.0000000000000000     
   8.2239365380189153E-002  0.10267502676167971        0.0000000000000000     
   8.4963706822765883E-002  0.10971586295675315        0.0000000000000000     
   6.9832112409243294E-002   8.3695565144229267E-002   0.0000000000000000     
   7.1600583122168007E-002   8.9373962405202040E-002   0.0000000000000000     
   7.3562833995931415E-002   9.5474064564214173E-002   0.0000000000000000     
   7.5718865030533489E-002  0.10199587162126561        0.0000000000000000     
   7.8068676225974257E-002  0.10893938357635635        0.0000000000000000     
   6.4220003686978014E-002   8.3070796963876384E-002   0.0000000000000000     
   6.5821819159721712E-002   8.8785075907732020E-002   0.0000000000000000     
   6.7570871548060837E-002   9.4874105437893722E-002   0.0000000000000000     
   6.9467160851995405E-002  0.10133788555436155        0.0000000000000000     
   7.1510687071525414E-002  0.10817641625713545        0.0000000000000000     
   5.8771741688959218E-002   8.2476496256948015E-002   0.0000000000000000     
   6.0225254009344802E-002   8.8225836189896337E-002   0.0000000000000000     
   6.1796091061216696E-002   9.4300693624569526E-002   0.0000000000000000     
   6.3484252844574887E-002  0.10070106856096751        0.0000000000000000     
   6.5289739359419369E-002  0.10742696099909037        0.0000000000000000     
   5.3487326415186914E-002   8.1912663023444202E-002   0.0000000000000000     
   5.4810887671037326E-002   8.7696243251695075E-002   0.0000000000000000     
   5.6238492535398990E-002   9.3753829124241503E-002   0.0000000000000000     
   5.7770141008271929E-002  0.10008542064108357        0.0000000000000000     
   5.9405833089656107E-002  0.10669101780222116        0.0000000000000000     
   8.4963706822765883E-002  0.10971586295675315        0.0000000000000000     
   8.8052544285338999E-002  0.11726439871784022        0.0000000000000000     
   9.1613419320688838E-002  0.12536195317403015        0.0000000000000000     
   9.5646331928815373E-002  0.13400852632532290        0.0000000000000000     
  0.10015128210971863       0.14320411817171849        0.0000000000000000     
   7.8068676225974257E-002  0.10893938357635635        0.0000000000000000     
   8.0757671883131946E-002  0.11636141199390262        0.0000000000000000     
   8.3931256302884769E-002  0.12431876843832063        0.0000000000000000     
   8.7589429485232725E-002  0.13281145290961033        0.0000000000000000     
   9.1732191430175858E-002  0.14183946540777170        0.0000000000000000     
   7.1510687071525414E-002  0.10817641625713545        0.0000000000000000     
   7.3870021574886063E-002  0.11548135427664902        0.0000000000000000     
   7.6713735730312538E-002  0.12334435634333585        0.0000000000000000     
   8.0041829537804809E-002  0.13176542245719594        0.0000000000000000     
   8.3854302997362906E-002  0.14074455261822935        0.0000000000000000     
   6.5289739359419369E-002  0.10742696099909037        0.0000000000000000     
   6.7389593360601380E-002  0.11462422556607939        0.0000000000000000     
   6.9960857602972104E-002  0.12243871688907591        0.0000000000000000     
   7.3003532086531597E-002  0.13087043496807990        0.0000000000000000     
   7.6517616811279818E-002  0.13991937980309141        0.0000000000000000     
   5.9405833089656107E-002  0.10669101780222116        0.0000000000000000     
   6.1316387240277853E-002  0.11379002586219376        0.0000000000000000     
   6.3672621920863509E-002  0.12160185007554075        0.0000000000000000     
   6.6474537131413061E-002  0.13012649044226213        0.0000000000000000     
   6.9722132871926523E-002  0.13936394696235788        0.0000000000000000     
  0.10015128210971863       0.14320411817171849        0.0000000000000000     
  0.10415519466017376       0.15227121724438764        0.0000000000000000     
  0.10668499437695589       0.16053231207450108        0.0000000000000000     
  0.10774068126006506       0.16798740266205883        0.0000000000000000     
  0.10732225530950124       0.17463648900706089        0.0000000000000000     
   9.1732191430175858E-002  0.14183946540777170        0.0000000000000000     
   9.5595827602663677E-002  0.15087757875488314        0.0000000000000000     
   9.8416623467645778E-002  0.15940056577302295        0.0000000000000000     
  0.10019457902512217       0.16740842646219115        0.0000000000000000     
  0.10092969427509287       0.17490116082238769        0.0000000000000000     
   8.3854302997362906E-002  0.14074455261822935        0.0000000000000000     
   8.7532175137869539E-002  0.14982242581065705        0.0000000000000000     
   9.0456464988207447E-002  0.15853972101870020        0.0000000000000000     
   9.2627172548376588E-002  0.16689643824235875        0.0000000000000000     
   9.4044297818377032E-002  0.17489257748163267        0.0000000000000000     
   7.6517616811279818E-002  0.13991937980309141        0.0000000000000000     
   7.9964237265791355E-002  0.14910575841170939        0.0000000000000000     
   8.2804518938640867E-002  0.15794977781153274        0.0000000000000000     
   8.5038461829828313E-002  0.16645143800256162        0.0000000000000000     
   8.6666065939353734E-002  0.17461073898479595        0.0000000000000000     
   6.9722132871926523E-002  0.13936394696235788        0.0000000000000000     
   7.2892013986429097E-002  0.14872757655804006        0.0000000000000000     
   7.5460785318946039E-002  0.15763073615152073        0.0000000000000000     
   7.7428446869477335E-002  0.16607342574279982        0.0000000000000000     
   7.8794998638022973E-002  0.17405564533187734        0.0000000000000000     
   0.0000000000000000        0.0000000000000000        0.0000000000000000     
   2.8804465422275676E-003   1.7446390920346777E-003   0.0000000000000000     
   5.8730045806714426E-003   3.8631833589664434E-003   0.0000000000000000     
   8.9776741153316224E-003   6.3556328007952963E-003   0.0000000000000000     
   1.2194455146208111E-002   9.2219874175212390E-003   0.0000000000000000     
   0.0000000000000000        0.0000000000000000        0.0000000000000000     
   2.6109603633187621E-003   1.5889146445341020E-003   0.0000000000000000     
   5.2901714233433844E-003   3.5554322008651790E-003   0.0000000000000000     
   8.0376331800738644E-003   5.8995526689932312E-003   0.0000000000000000     
   1.0853345633510208E-002   8.6212760489182590E-003   0.0000000000000000     
   0.0000000000000000        0.0000000000000000        0.0000000000000000     
   2.3408040966203594E-003   1.4591481495911589E-003   0.0000000000000000     
   4.7204957583303342E-003   3.2988706095664283E-003   0.0000000000000000     
   7.1390749851299251E-003   5.5191673799258080E-003   0.0000000000000000     
   9.5965417770191314E-003   8.1200384606692991E-003   0.0000000000000000     
   0.0000000000000000        0.0000000000000000        0.0000000000000000     
   2.0699777421323584E-003   1.3553396072058486E-003   0.0000000000000000     
   4.1639775856322919E-003   3.0934985850701920E-003   0.0000000000000000     
   6.2819995304998020E-003   5.2144769335930301E-003   0.0000000000000000     
   8.4240435767348881E-003   7.7182746527743630E-003   0.0000000000000000     
   0.0000000000000000        0.0000000000000000        0.0000000000000000     
   1.7984812998547593E-003   1.2774890173781709E-003   0.0000000000000000     
   3.6206169052492580E-003   2.9393161273764692E-003   0.0000000000000000     
   5.4664068161834958E-003   4.9854813299948951E-003   0.0000000000000000     
   7.3358510326574740E-003   7.4159846252334488E-003   0.0000000000000000     
   1.2194455146208111E-002   9.2219874175212390E-003   0.0000000000000000     
   1.5426988954380423E-002   1.2361956250972899E-002   0.0000000000000000     
   1.8578916820928069E-002   1.5675248342978912E-002   0.0000000000000000     
   2.1650238745851053E-002   1.9161863693539279E-002   0.0000000000000000     
   2.4640954729149376E-002   2.2821802302653994E-002   0.0000000000000000     
   1.0853345633510208E-002   8.6212760489182590E-003   0.0000000000000000     
   1.3685601279940181E-002   1.1640536579743717E-002   0.0000000000000000     
   1.6482692615651572E-002   1.4877268500573070E-002   0.0000000000000000     
   1.9244619640644368E-002   1.8331471811406312E-002   0.0000000000000000     
   2.1971382354918575E-002   2.2003146512243447E-002   0.0000000000000000     
   9.5965417770191314E-003   8.1200384606692991E-003   0.0000000000000000     
   1.2071058000939957E-002   1.1036512327409268E-002   0.0000000000000000     
   1.4540785523834405E-002   1.4203617455758086E-002   0.0000000000000000     
   1.7005724345702477E-002   1.7621353845715747E-002   0.0000000000000000     
   1.9465874466544165E-002   2.1289721497282258E-002   0.0000000000000000     
   8.4240435767348881E-003   7.7182746527743630E-003   0.0000000000000000     
   1.0583359117379745E-002   1.0549883493969554E-002   0.0000000000000000     
   1.2753195545476576E-002   1.3654295208533961E-002   0.0000000000000000     
   1.4933552861025377E-002   1.7031509796467587E-002   0.0000000000000000     
   1.7124431064026151E-002   2.0681527257770428E-002   0.0000000000000000     
   7.3358510326574740E-003   7.4159846252334488E-003   0.0000000000000000     
   9.2225046292595501E-003   1.0180650079424569E-002   0.0000000000000000     
   1.1119922680578083E-002   1.3229301758900695E-002   0.0000000000000000     
   1.3028105186613077E-002   1.6561939663661821E-002   0.0000000000000000     
   1.4947052147364526E-002   2.0178563793707957E-002   0.0000000000000000     
   2.4640954729149376E-002   2.2821802302653994E-002   0.0000000000000000     
   2.7548499914727815E-002   2.6672586939582032E-002   0.0000000000000000     