 <VTKFile type="UnstructuredGrid"  version="0.1"   >
 <UnstructuredGrid>
 <Piece  NumberOfPoints="          1600 "  NumberOfCells="         1024 ">
 <Points>
 <DataArray  type="Float64" NumberOfComponents="3"  format="ascii" >
   0.0000000000000000        0.0000000000000000        0.0000000000000000     
   3.1250000000000000E-002   0.0000000000000000        0.0000000000000000     
   6.2500000000000000E-002   0.0000000000000000        0.0000000000000000     
   9.3750000000000000E-002   0.0000000000000000        0.0000000000000000     
  0.12500000000000000        0.0000000000000000        0.0000000000000000     
   0.0000000000000000        3.1250000000000000E-002   0.0000000000000000     
   3.1250000000000000E-002   3.1250000000000000E-002   0.0000000000000000     
   6.2500000000000000E-002   3.1250000000000000E-002   0.0000000000000000     
   9.3750000000000000E-002   3.1250000000000000E-002   0.0000000000000000     
  0.12500000000000000        3.1250000000000000E-002   0.0000000000000000     
   0.0000000000000000        6.2500000000000000E-002   0.0000000000000000     
   3.1250000000000000E-002   6.2500000000000000E-002   0.0000000000000000     
   6.2500000000000000E-002   6.2500000000000000E-002   0.0000000000000000     
   9.3750000000000000E-002   6.2500000000000000E-002   0.0000000000000000     
  0.12500000000000000        6.2500000000000000E-002   0.0000000000000000     
   0.0000000000000000        9.3750000000000000E-002   0.0000000000000000     
   3.1250000000000000E-002   9.3750000000000000E-002   0.0000000000000000     
   6.2500000000000000E-002   9.3750000000000000E-002   0.0000000000000000     
   9.3750000000000000E-002   9.3750000000000000E-002   0.0000000000000000     
  0.12500000000000000        9.3750000000000000E-002   0.0000000000000000     
   0.0000000000000000       0.12500000000000000        0.0000000000000000     
   3.1250000000000000E-002  0.12500000000000000        0.0000000000000000     
   6.2500000000000000E-002  0.12500000000000000        0.0000000000000000     
   9.3750000000000000E-002  0.12500000000000000        0.0000000000000000     
  0.12500000000000000       0.12500000000000000        0.0000000000000000     
  0.12500000000000000        0.0000000000000000        0.0000000000000000     
  0.15625000000000000        0.0000000000000000        0.0000000000000000     
  0.18750000000000000        0.0000000000000000        0.0000000000000000     
  0.21875000000000000        0.0000000000000000        0.0000000000000000     
  0.25000000000000000        0.0000000000000000        0.0000000000000000     
  0.12500000000000000        3.1250000000000000E-002   0.0000000000000000     
  0.15625000000000000        3.1250000000000000E-002   0.0000000000000000     
  0.18750000000000000        3.1250000000000000E-002   0.0000000000000000     
  0.21875000000000000        3.1250000000000000E-002   0.0000000000000000     
  0.25000000000000000        3.1250000000000000E-002   0.0000000000000000     
  0.12500000000000000        6.2500000000000000E-002   0.0000000000000000     
  0.15625000000000000        6.2500000000000000E-002   0.0000000000000000     
  0.18750000000000000        6.2500000000000000E-002   0.0000000000000000     
  0.21875000000000000        6.2500000000000000E-002   0.0000000000000000     
  0.25000000000000000        6.2500000000000000E-002   0.0000000000000000     
  0.12500000000000000        9.3750000000000000E-002   0.0000000000000000     
  0.15625000000000000        9.3750000000000000E-002   0.0000000000000000     
  0.18750000000000000        9.3750000000000000E-002   0.0000000000000000     
  0.21875000000000000        9.3750000000000000E-002   0.0000000000000000     
  0.25000000000000000        9.3750000000000000E-002   0.0000000000000000     
  0.12500000000000000       0.12500000000000000        0.0000000000000000     
  0.15625000000000000       0.12500000000000000        0.0000000000000000     
  0.18750000000000000       0.12500000000000000        0.0000000000000000     
  0.21875000000000000       0.12500000000000000        0.0000000000000000     
  0.25000000000000000       0.12500000000000000        0.0000000000000000     
  0.25000000000000000        0.0000000000000000        0.0000000000000000     
  0.28125000000000000        0.0000000000000000        0.0000000000000000     
  0.31250000000000000        0.0000000000000000        0.0000000000000000     
  0.34375000000000000        0.0000000000000000        0.0000000000000000     
  0.37500000000000000        0.0000000000000000        0.0000000000000000     
  0.25000000000000000        3.1250000000000000E-002   0.0000000000000000     
  0.28125000000000000        3.1250000000000000E-002   0.0000000000000000     
  0.31250000000000000        3.1250000000000000E-002   0.0000000000000000     
  0.34375000000000000        3.1250000000000000E-002   0.0000000000000000     
  0.37500000000000000        3.1250000000000000E-002   0.0000000000000000     
  0.25000000000000000        6.2500000000000000E-002   0.0000000000000000     
  0.28125000000000000        6.2500000000000000E-002   0.0000000000000000     
  0.31250000000000000        6.2500000000000000E-002   0.0000000000000000     
  0.34375000000000000        6.2500000000000000E-002   0.0000000000000000     
  0.37500000000000000        6.2500000000000000E-002   0.0000000000000000     
  0.25000000000000000        9.3750000000000000E-002   0.0000000000000000     
  0.28125000000000000        9.3750000000000000E-002   0.0000000000000000     
  0.31250000000000000        9.3750000000000000E-002   0.0000000000000000     
  0.34375000000000000        9.3750000000000000E-002   0.0000000000000000     
  0.37500000000000000        9.3750000000000000E-002   0.0000000000000000     
  0.25000000000000000       0.12500000000000000        0.0000000000000000     
  0.28125000000000000       0.12500000000000000        0.0000000000000000     
  0.31250000000000000       0.12500000000000000        0.0000000000000000     
  0.34375000000000000       0.12500000000000000        0.0000000000000000     
  0.37500000000000000       0.12500000000000000        0.0000000000000000     
  0.37500000000000000        0.0000000000000000        0.0000000000000000     
  0.40625000000000000        0.0000000000000000        0.0000000000000000     
  0.43750000000000000        0.0000000000000000        0.0000000000000000     
  0.46875000000000000        0.0000000000000000        0.0000000000000000     
  0.50000000000000000        0.0000000000000000        0.0000000000000000     
  0.37500000000000000        3.1250000000000000E-002   0.0000000000000000     
  0.40625000000000000        3.1250000000000000E-002   0.0000000000000000     
  0.43750000000000000        3.1250000000000000E-002   0.0000000000000000     
  0.46875000000000000        3.1250000000000000E-002   0.0000000000000000     
  0.50000000000000000        3.1250000000000000E-002   0.0000000000000000     
  0.37500000000000000        6.2500000000000000E-002   0.0000000000000000     
  0.40625000000000000        6.2500000000000000E-002   0.0000000000000000     
  0.43750000000000000        6.2500000000000000E-002   0.0000000000000000     
  0.46875000000000000        6.2500000000000000E-002   0.0000000000000000     
  0.50000000000000000        6.2500000000000000E-002   0.0000000000000000     
  0.37500000000000000        9.3750000000000000E-002   0.0000000000000000     
  0.40625000000000000        9.3750000000000000E-002   0.0000000000000000     
  0.43750000000000000        9.3750000000000000E-002   0.0000000000000000     
  0.46875000000000000        9.3750000000000000E-002   0.0000000000000000     
  0.50000000000000000        9.3750000000000000E-002   0.0000000000000000     
  0.37500000000000000       0.12500000000000000        0.0000000000000000     
  0.40625000000000000       0.12500000000000000        0.0000000000000000     
  0.43750000000000000       0.12500000000000000        0.0000000000000000     
  0.46875000000000000       0.12500000000000000        0.0000000000000000     
  0.50000000000000000       0.12500000000000000        0.0000000000000000     
  0.50000000000000000        0.0000000000000000        0.0000000000000000     
  0.53125000000000000        0.0000000000000000        0.0000000000000000     
  0.56250000000000000        0.0000000000000000        0.0000000000000000     
  0.59375000000000000        0.0000000000000000        0.0000000000000000     
  0.62500000000000000        0.0000000000000000        0.0000000000000000     
  0.50000000000000000        3.1250000000000000E-002   0.0000000000000000     
  0.53125000000000000        3.1250000000000000E-002   0.0000000000000000     
  0.56250000000000000        3.1250000000000000E-002   0.0000000000000000     
  0.59375000000000000        3.1250000000000000E-002   0.0000000000000000     
  0.62500000000000000        3.1250000000000000E-002   0.0000000000000000     
  0.50000000000000000        6.2500000000000000E-002   0.0000000000000000     
  0.53125000000000000        6.2500000000000000E-002   0.0000000000000000     
  0.56250000000000000        6.2500000000000000E-002   0.0000000000000000     
  0.59375000000000000        6.2500000000000000E-002   0.0000000000000000     
  0.62500000000000000        6.2500000000000000E-002   0.0000000000000000     
  0.50000000000000000        9.3750000000000000E-002   0.0000000000000000     
  0.53125000000000000        9.3750000000000000E-002   0.0000000000000000     
  0.56250000000000000        9.3750000000000000E-002   0.0000000000000000     
  0.59375000000000000        9.3750000000000000E-002   0.0000000000000000     
  0.62500000000000000        9.3750000000000000E-002   0.0000000000000000     
  0.50000000000000000       0.12500000000000000        0.0000000000000000     
  0.53125000000000000       0.12500000000000000        0.0000000000000000     
  0.56250000000000000       0.12500000000000000        0.0000000000000000     
[...]
 <PointData>
 <DataArray  type="Float64" Name="disp" NumberOfComponents="3" format="ascii">
   0.0000000000000000        0.0000000000000000        0.0000000000000000     
   6.0959191097351316E-003   3.7907013775815351E-003   0.0000000000000000     
   1.1665900838083190E-002   7.3242771057673147E-003   0.0000000000000000     
   1.6709945185044178E-002   1.0600727184557339E-002   0.0000000000000000     
   2.1228052150618092E-002   1.3620051613951608E-002   0.0000000000000000     
   0.0000000000000000        0.0000000000000000        0.0000000000000000     
   4.8910869826877586E-003   3.0223612268226036E-003   0.0000000000000000     
   9.5734916076864428E-003   6.0609230364288124E-003   0.0000000000000000     
   1.4047213874996051E-002   9.1156854288186283E-003   0.0000000000000000     
   1.8312253784616588E-002   1.2186648403992049E-002   0.0000000000000000     
   0.0000000000000000        0.0000000000000000        0.0000000000000000     
   3.9534945373135696E-003   2.4252963364233618E-003   0.0000000000000000     
   7.9104691147601890E-003   5.0632512413363072E-003   0.0000000000000000     
   1.1870923732339861E-002   7.9138647147388372E-003   0.0000000000000000     
   1.5834858390052584E-002   1.0977136756630951E-002   0.0000000000000000     
   0.0000000000000000        0.0000000000000000        0.0000000000000000     
   3.2831417736125658E-003   1.9995067063838094E-003   0.0000000000000000     
   6.6768333593044352E-003   4.3312617204897983E-003   0.0000000000000000     
   1.0181074757075607E-002   6.9952650423179665E-003   0.0000000000000000     
   1.3795865966926082E-002   9.9915166718683134E-003   0.0000000000000000     
   0.0000000000000000        0.0000000000000000        0.0000000000000000     
   2.8800286915847476E-003   1.7449923367039472E-003   0.0000000000000000     
   5.8725843413191779E-003   3.8649544738892858E-003   0.0000000000000000     
   8.9776669492032894E-003   6.3598864115560162E-003   0.0000000000000000     
   1.2195276515237087E-002   9.2297881497041372E-003   0.0000000000000000     
   2.1228052150618092E-002   1.3620051613951608E-002   0.0000000000000000     
   2.5432991269943628E-002   1.6613016815274016E-002   0.0000000000000000     
   2.9537532078159474E-002   1.9810389209848463E-002   0.0000000000000000     
   3.3541674575265634E-002   2.3212168797674945E-002   0.0000000000000000     
   3.7445418761262103E-002   2.6818355578753464E-002   0.0000000000000000     
   1.8312253784616588E-002   1.2186648403992049E-002   0.0000000000000000     
   2.2406739312124828E-002   1.5342238141996107E-002   0.0000000000000000     
   2.6368798433097553E-002   1.8650880822877840E-002   0.0000000000000000     
   3.0198431147534767E-002   2.2112576446637243E-002   0.0000000000000000     
   3.3895637455436466E-002   2.5727325013274318E-002   0.0000000000000000     
   1.5834858390052584E-002   1.0977136756630951E-002   0.0000000000000000     
   1.9730430251805833E-002   1.4211902537067641E-002   0.0000000000000000     
   2.3485796481507091E-002   1.7576997226103886E-002   0.0000000000000000     
   2.7100957079156354E-002   2.1072420823739696E-002   0.0000000000000000     
   3.0575912044753625E-002   2.4698173329975068E-002   0.0000000000000000     
   1.3795865966926082E-002   9.9915166718683134E-003   0.0000000000000000     
   1.7404064088986648E-002   1.3222010000488603E-002   0.0000000000000000     
   2.0888526223388080E-002   1.6588738419526603E-002   0.0000000000000000     
   2.4249252370130394E-002   2.0091701928982311E-002   0.0000000000000000     
   2.7486242529213580E-002   2.3730900528855726E-002   0.0000000000000000     
   1.2195276515237087E-002   9.2297881497041372E-003   0.0000000000000000     
   1.5427640823667266E-002   1.2372560532259009E-002   0.0000000000000000     
   1.8576987658740531E-002   1.5686104403145992E-002   0.0000000000000000     
   2.1643317020456885E-002   1.9170419762365085E-002   0.0000000000000000     
   2.4626628908816329E-002   2.2825506609916286E-002   0.0000000000000000     
   3.7445418761262103E-002   2.6818355578753464E-002   0.0000000000000000     
   4.1253260205248089E-002   3.0623886476303114E-002   0.0000000000000000     
   4.4969694476322791E-002   3.4623698413542986E-002   0.0000000000000000     
   4.8594721574486216E-002   3.8817791390473096E-002   0.0000000000000000     
   5.2128341499738357E-002   4.3206165407093419E-002   0.0000000000000000     
   3.3895637455436466E-002   2.5727325013274318E-002   0.0000000000000000     
   3.7483741155409436E-002   2.9523746384360273E-002   0.0000000000000000     
   4.0986066046060490E-002   3.3530460421466325E-002   0.0000000000000000     
   4.4402612127389614E-002   3.7747467124592468E-002   0.0000000000000000     
   4.7733379399396800E-002   4.2174766493738712E-002   0.0000000000000000     
   3.0575912044753625E-002   2.4698173329975068E-002   0.0000000000000000     
   3.3940245669776332E-002   2.8498734223744961E-002   0.0000000000000000     
   3.7223542245701929E-002   3.2518582983984322E-002   0.0000000000000000     
   4.0425801772530391E-002   3.6757719610693157E-002   0.0000000000000000     
   4.3547024250261732E-002   4.1216144103871463E-002   0.0000000000000000     
   2.7486242529213580E-002   2.3730900528855726E-002   0.0000000000000000     
   3.0622773748348764E-002   2.7548849994457170E-002   0.0000000000000000     
   3.3682123075247095E-002   3.1588066101096990E-002   0.0000000000000000     
   3.6664290509908555E-002   3.5848548848775155E-002   0.0000000000000000     
   3.9569276052333152E-002   4.0330298237491680E-002   0.0000000000000000     
   2.4626628908816329E-002   2.2825506609916286E-002   0.0000000000000000     
   2.7531325391126741E-002   2.6674093696496919E-002   0.0000000000000000     
   3.0361808534695996E-002   3.0738909772804308E-002   0.0000000000000000     
   3.3118078339524112E-002   3.5019954838838456E-002   0.0000000000000000     
   3.5800134805611068E-002   3.9517228894599347E-002   0.0000000000000000     
   5.2128341499738357E-002   4.3206165407093419E-002   0.0000000000000000     
   5.5567271836952398E-002   4.7793903585065800E-002   0.0000000000000000     
   5.8908230171001524E-002   5.2586089046052026E-002   0.0000000000000000     
   6.2151216501885737E-002   5.7582721790052138E-002   0.0000000000000000     
   6.5296230829605020E-002   6.2783801817066096E-002   0.0000000000000000     
   4.7733379399396800E-002   4.2174766493738712E-002   0.0000000000000000     
   5.0973293010104163E-002   4.6806033394770359E-002   0.0000000000000000     
   5.4117278107533778E-002   5.1634942693552711E-002   0.0000000000000000     
   5.7165334691685658E-002   5.6661494390085783E-002   0.0000000000000000     
   6.0117462762559803E-002   6.1885688484369546E-002   0.0000000000000000     
   4.3547024250261732E-002   4.1216144103871463E-002   0.0000000000000000     
   4.6581915399747098E-002   4.5881307566444297E-002   0.0000000000000000     
   4.9525180941837617E-002   5.0740661101336709E-002   0.0000000000000000     
   5.2376820876533288E-002   5.5794204708548678E-002   0.0000000000000000     
   5.5136835203834118E-002   6.1041938388080225E-002   0.0000000000000000     
   3.9569276052333152E-002   4.0330298237491680E-002   0.0000000000000000     
   4.2393139005881209E-002   4.5019726100087615E-002   0.0000000000000000     
   4.5131938673913033E-002   4.9903244269403998E-002   0.0000000000000000     
   4.7785675056428618E-002   5.4980852745440852E-002   0.0000000000000000     
   5.0354348153427972E-002   6.0252551528198153E-002   0.0000000000000000     
   3.5800134805611068E-002   3.9517228894599347E-002   0.0000000000000000     
   3.8406963828506495E-002   4.4221288995700297E-002   0.0000000000000000     
   4.0937551303760034E-002   4.9122692197754614E-002   0.0000000000000000     
   4.3391897231371664E-002   5.4221438500762269E-002   0.0000000000000000     
   4.5770001611341385E-002   5.9517527904723290E-002   0.0000000000000000     
   6.5296230829605020E-002   6.2783801817066096E-002   0.0000000000000000     
   6.8349674329766075E-002   6.8175108468955525E-002   0.0000000000000000     
   7.1317948177975585E-002   7.3742421087582000E-002   0.0000000000000000     
   7.4201052374233509E-002   7.9485739672945518E-002   0.0000000000000000     
   7.6998986918539902E-002   8.5405064225046096E-002   0.0000000000000000     
   6.0117462762559803E-002   6.1885688484369546E-002   0.0000000000000000     
   6.2981353130812573E-002   6.7298297773946386E-002   0.0000000000000000     
   6.5764696607100340E-002   7.2890095056358642E-002   0.0000000000000000     
   6.8467493191423118E-002   7.8661080331606306E-002   0.0000000000000000     
   7.1089742883780893E-002   8.4611253599689379E-002   0.0000000000000000     
   5.5136835203834118E-002   6.1041938388080225E-002   0.0000000000000000     
   5.7812976742115330E-002   6.6477220862814546E-002   0.0000000000000000     
   6.0412998309752150E-002   7.2093410855634810E-002   0.0000000000000000     
   6.2936899906744601E-002   7.7890508366541017E-002   0.0000000000000000     
   6.5384681533092653E-002   8.3868513395533167E-002   0.0000000000000000     
   5.0354348153427972E-002   6.0252551528198153E-002   0.0000000000000000     
   5.2844545163674365E-002   6.5711877735560004E-002   0.0000000000000000     
   5.5262853285931030E-002   7.1352368485410503E-002   0.0000000000000000     
   5.7609272520197964E-002   7.7174023777749665E-002   0.0000000000000000     
   5.9883802866475183E-002   8.3176843612577503E-002   0.0000000000000000     
   4.5770001611341385E-002   5.9517527904723290E-002   0.0000000000000000     
   4.8076058395489653E-002   6.5002268392182774E-002   0.0000000000000000     
   5.0314261535636923E-002   7.0666967945685763E-002   0.0000000000000000     
   5.2484611031783208E-002   7.6511626565232277E-002   0.0000000000000000     
   5.4587106883928503E-002   8.2536244250822344E-002   0.0000000000000000     
   7.6998986918539902E-002   8.5405064225046096E-002   0.0000000000000000     
   7.9698469614423340E-002   9.1493410544471271E-002   0.0000000000000000     
   8.2286218265412409E-002   9.7743794431808542E-002   0.0000000000000000     
   8.4762232871507165E-002  0.10415621588705797        0.0000000000000000     
   8.7126513432707539E-002  0.11073067491021951        0.0000000000000000     
   7.1089742883780893E-002   8.4611253599689379E-002   0.0000000000000000     
   7.3619380378941543E-002   9.0731159055162602E-002   0.0000000000000000     
   7.6044340371672917E-002   9.7011340892580761E-002   0.0000000000000000     
   7.8364622861975056E-002  0.10345179911194378        0.0000000000000000     
   8.0580227849847946E-002  0.11005253371325174        0.0000000000000000     
   6.5384681533092653E-002   8.3868513395533167E-002   0.0000000000000000     
   6.7745620740402496E-002   9.0016669770615260E-002   0.0000000000000000     
   7.0008995080280301E-002   9.6324221319791237E-002   0.0000000000000000     
   7.2174804552726068E-002  0.10279116804306110        0.0000000000000000     
   7.4243049157739827E-002  0.10941750994042487        0.0000000000000000     
   5.9883802866475183E-002   8.3176843612577503E-002   0.0000000000000000     
   6.2077190698806212E-002   8.9349942690829187E-002   0.0000000000000000     
   6.4180182391234547E-002   9.5682435713439984E-002   0.0000000000000000     
   6.6192777943760189E-002  0.10217432268040989        0.0000000000000000     
   6.8114977356383166E-002  0.10882560359173891        0.0000000000000000     
   5.4587106883928503E-002   8.2536244250822344E-002   0.0000000000000000     
   5.6614090254152691E-002   8.8730977815804427E-002   0.0000000000000000     
   5.8557902304535656E-002   9.5085984073527030E-002   0.0000000000000000     
   6.0418543035077425E-002  0.10160126302399015        0.0000000000000000     
   6.2196012445777979E-002  0.10827681466719383        0.0000000000000000     
   8.7126513432707539E-002  0.11073067491021951        0.0000000000000000     
   8.9395508774611443E-002  0.11745122284470373        0.0000000000000000     
   9.1585667722816760E-002  0.12430191103392117        0.0000000000000000     
   9.3696990277323422E-002  0.13128273947787183        0.0000000000000000     
   9.5729476438131511E-002  0.13839370817655572        0.0000000000000000     
   8.0580227849847946E-002  0.11005253371325174        0.0000000000000000     
   8.2704817262577862E-002  0.11679888602684542        0.0000000000000000     
   8.4752053027451132E-002  0.12367619738306561        0.0000000000000000     
   8.6721935144467716E-002  0.13068446778191234        0.0000000000000000     
   8.8614463613627625E-002  0.13782369722338558        0.0000000000000000     
   7.4243049157739827E-002  0.10941750994042487        0.0000000000000000     
   7.6225372763398275E-002  0.11618917422132997        0.0000000000000000     
   7.8133419237778168E-002  0.12309208809522389        0.0000000000000000     
   7.9967188580879520E-002  0.13012625156210658        0.0000000000000000     
   8.1726680792702316E-002  0.13729166462197809        0.0000000000000000     
   6.8114977356383166E-002  0.10882560359173891        0.0000000000000000     
   6.9957175277072667E-002  0.11562208742815748        0.0000000000000000     
   7.1729766353797894E-002  0.12254958317039602        0.0000000000000000     
   7.3432750586558848E-002  0.12960809081845459        0.0000000000000000     
   7.5066127975355529E-002  0.13679761037233318        0.0000000000000000     
   6.2196012445777979E-002  0.10827681466719383        0.0000000000000000     
   6.3900224803601025E-002  0.11509762564732783        0.0000000000000000     
   6.5541094375510270E-002  0.12204868260858202        0.0000000000000000     
   6.7118621161505673E-002  0.12912998555095637        0.0000000000000000     
   6.8632805161587290E-002  0.13634153447445088        0.0000000000000000     
   9.5729476438131511E-002  0.13839370817655572        0.0000000000000000     
   9.7668902271100366E-002  0.14562610168933673        0.0000000000000000     
   9.9501043842089354E-002  0.15297120457557875        0.0000000000000000     
  0.10122590115109847       0.16042901683528180        0.0000000000000000     
  0.10284347419812774       0.16799953846844587        0.0000000000000000     
   8.8614463613627625E-002  0.13782369722338558        0.0000000000000000     
   9.0417994898516901E-002  0.14508436476759917        0.0000000000000000     
   9.2120885462721416E-002  0.15245694947466698        0.0000000000000000     
   9.3723135306241212E-002  0.15994145134458893        0.0000000000000000     
   9.5224744429076330E-002  0.16753787037736506        0.0000000000000000     
   8.1726680792702316E-002  0.13729166462197809        0.0000000000000000     
   8.3401819502017263E-002  0.14457863288814288        0.0000000000000000     
   8.4982528337594995E-002  0.15197746197390563        0.0000000000000000     
   8.6468807299435568E-002  0.15948815187926624        0.0000000000000000     
   8.7860656387538941E-002  0.16711070260422473        0.0000000000000000     
   7.5066127975355529E-002  0.13679761037233318        0.0000000000000000     
   7.6620376081601452E-002  0.14410890605096782        0.0000000000000000     
   7.8085972466710118E-002  0.15153274207329470        0.0000000000000000     
   7.9462917130681501E-002  0.15906911843931371        0.0000000000000000     
   8.0751210073515586E-002  0.16671803514902492        0.0000000000000000     
   6.8632805161587290E-002  0.13634153447445088        0.0000000000000000     
   7.0073664637269509E-002  0.14367518425607401        0.0000000000000000     
   7.1431217850066744E-002  0.15112278977283417        0.0000000000000000     
   7.2705464799978997E-002  0.15868435102473136        0.0000000000000000     
   7.3896405487006253E-002  0.16635986801176561        0.0000000000000000     
   0.0000000000000000        0.0000000000000000        0.0000000000000000     
   2.8800286915847476E-003   1.7449923367039472E-003   0.0000000000000000     
   5.8725843413191779E-003   3.8649544738892858E-003   0.0000000000000000     
   8.9776669492032894E-003   6.3598864115560162E-003   0.0000000000000000     
   1.2195276515237087E-002   9.2297881497041372E-003   0.0000000000000000     
   0.0000000000000000        0.0000000000000000        0.0000000000000000     
   2.6103064411573543E-003   1.5890786667129844E-003   0.0000000000000000     
   5.2897260442714231E-003   3.5569985400470483E-003   0.0000000000000000     
   8.0382588093422074E-003   5.9037596200021917E-003   0.0000000000000000     
   1.0855904736369708E-002   8.6293619065784134E-003   0.0000000000000000     
   0.0000000000000000        0.0000000000000000        0.0000000000000000     
   2.3401261722576262E-003   1.4590911357401312E-003   0.0000000000000000     
   4.7202624516281787E-003   3.3000629574753645E-003   0.0000000000000000     
   7.1404088381116573E-003   5.5229154652056984E-003   0.0000000000000000     
   9.6005653317080639E-003   8.1276486589311366E-003   0.0000000000000000     
   0.0000000000000000        0.0000000000000000        0.0000000000000000     
   2.0694878848855633E-003   1.3550297437853874E-003   0.0000000000000000     
   4.1641935633894437E-003   3.0941477261742334E-003   0.0000000000000000     
   6.2841170355116410E-003   5.2173539471665389E-003   0.0000000000000000     
   8.4292583012521554E-003   7.7246484067623016E-003   0.0000000000000000     
   0.0000000000000000        0.0000000000000000        0.0000000000000000     
   1.7983915790411660E-003   1.2768944908487533E-003   0.0000000000000000     
   3.6215193795552181E-003   2.9392528461436563E-003   0.0000000000000000     
   5.4693834015421567E-003   4.9870750658847097E-003   0.0000000000000000     
   7.3419836450019814E-003   7.4203611500719127E-003   0.0000000000000000     
   1.2195276515237087E-002   9.2297881497041372E-003   0.0000000000000000     
   1.5427640823667266E-002   1.2372560532259009E-002   0.0000000000000000     
   1.8576987658740531E-002   1.5686104403145992E-002   0.0000000000000000     
   2.1643317020456885E-002   1.9170419762365085E-002   0.0000000000000000     
   2.4626628908816329E-002   2.2825506609916286E-002   0.0000000000000000     
   1.0855904736369708E-002   8.6293619065784134E-003   0.0000000000000000     
   1.3689302125339729E-002   1.1651523260733463E-002   0.0000000000000000     
   1.6485089276238069E-002   1.4887961543425077E-002   0.0000000000000000     
   1.9243266189064738E-002   1.8338676754653269E-002   0.0000000000000000     
   2.1963832863819727E-002   2.2003668894418019E-002   0.0000000000000000     
   9.6005653317080639E-003   8.1276486589311366E-003   0.0000000000000000     
   1.2077189663496066E-002   1.1046867314266566E-002   0.0000000000000000     
   1.4546739564554323E-002   1.4213176206826885E-002   0.0000000000000000     
   1.7009215034882844E-002   1.7626575336612091E-002   0.0000000000000000     
   1.9464616074481623E-002   2.1287064703622186E-002   0.0000000000000000     
   8.4292583012521554E-003   7.7246484067623016E-003   0.0000000000000000     
   1.0591303438136275E-002   1.0558592692858327E-002   0.0000000000000000     
   1.2761938523689296E-002   1.3661748393351415E-002   0.0000000000000000     
   1.4941163557911209E-002   1.7034115508241569E-002   0.0000000000000000     
   1.7128978540802021E-002   2.0675694037528791E-002   0.0000000000000000     
   7.3419836450019814E-003   7.4203611500719127E-003   0.0000000000000000     
   9.2316434492603645E-003   1.0186699396508739E-002   0.0000000000000000     
   1.1130686153642983E-002   1.3233678102998671E-002   0.0000000000000000     
   1.3039111758149834E-002   1.6561297269541697E-002   0.0000000000000000     
   1.4956920262780917E-002   2.0169556896137832E-002   0.0000000000000000     
   2.4626628908816329E-002   2.2825506609916286E-002   0.0000000000000000     
   2.7531325391126741E-002   2.6674093696496919E-002   0.0000000000000000     