 <VTKFile type="UnstructuredGrid"  version="0.1"   >
 <UnstructuredGrid>
 <Piece  NumberOfPoints="          1600 "  NumberOfCells="         1024 ">
 <Points>
 <DataArray  type="Float64" NumberOfComponents="3"  format="ascii" >
   0.0000000000000000        0.0000000000000000        0.0000000000000000     
   3.1250000000000000E-002   0.0000000000000000        0.0000000000000000     
   6.2500000000000000E-002   0.0000000000000000        0.0000000000000000     
   9.3750000000000000E-002   0.0000000000000000        0.0000000000000000     
  0.12500000000000000        0.0000000000000000        0.0000000000000000     
   0.0000000000000000        3.1250000000000000E-002   0.0000000000000000     
   3.1250000000000000E-002   3.1250000000000000E-002   0.0000000000000000     
   6.2500000000000000E-002   3.1250000000000000E-002   0.0000000000000000     
   9.3750000000000000E-002   3.1250000000000000E-002   0.0000000000000000     
  0.12500000000000000        3.1250000000000000E-002   0.0000000000000000     
   0.0000000000000000        6.2500000000000000E-002   0.0000000000000000     
   3.1250000000000000E-002   6.2500000000000000E-002   0.0000000000000000     
   6.2500000000000000E-002   6.2500000000000000E-002   0.0000000000000000     
   9.3750000000000000E-002   6.2500000000000000E-002   0.0000000000000000     
  0.12500000000000000        6.2500000000000000E-002   0.0000000000000000     
   0.0000000000000000        9.3750000000000000E-002   0.0000000000000000     
   3.1250000000000000E-002   9.3750000000000000E-002   0.0000000000000000     
   6.2500000000000000E-002   9.3750000000000000E-002   0.0000000000000000     
   9.3750000000000000E-002   9.3750000000000000E-002   0.0000000000000000     
  0.12500000000000000        9.3750000000000000E-002   0.0000000000000000     
   0.0000000000000000       0.12500000000000000        0.0000000000000000     
   3.1250000000000000E-002  0.12500000000000000        0.0000000000000000     
   6.2500000000000000E-002  0.12500000000000000        0.0000000000000000     
   9.3750000000000000E-002  0.12500000000000000        0.0000000000000000     
  0.12500000000000000       0.12500000000000000        0.0000000000000000     
  0.12500000000000000        0.0000000000000000        0.0000000000000000     
  0.15625000000000000        0.0000000000000000        0.0000000000000000     
  0.18750000000000000        0.0000000000000000        0.0000000000000000     
  0.21875000000000000        0.0000000000000000        0.0000000000000000     
  0.25000000000000000        0.0000000000000000        0.0000000000000000     
  0.12500000000000000        3.1250000000000000E-002   0.0000000000000000     
  0.15625000000000000        3.1250000000000000E-002   0.0000000000000000     
  0.18750000000000000        3.1250000000000000E-002   0.0000000000000000     
  0.21875000000000000        3.1250000000000000E-002   0.0000000000000000     
  0.25000000000000000        3.1250000000000000E-002   0.0000000000000000     
  0.12500000000000000        6.2500000000000000E-002   0.0000000000000000     
  0.15625000000000000        6.2500000000000000E-002   0.0000000000000000     
  0.18750000000000000        6.2500000000000000E-002   0.0000000000000000     
  0.21875000000000000        6.2500000000000000E-002   0.0000000000000000     
  0.25000000000000000        6.2500000000000000E-002   0.0000000000000000     
  0.12500000000000000        9.3750000000000000E-002   0.0000000000000000     
  0.15625000000000000        9.3750000000000000E-002   0.0000000000000000     
  0.18750000000000000        9.3750000000000000E-002   0.0000000000000000     
  0.21875000000000000        9.3750000000000000E-002   0.0000000000000000     
  0.25000000000000000        9.3750000000000000E-002   0.0000000000000000     
  0.12500000000000000       0.12500000000000000        0.0000000000000000     
  0.15625000000000000       0.12500000000000000        0.0000000000000000     
  0.18750000000000000       0.12500000000000000        0.0000000000000000     
  0.21875000000000000       0.12500000000000000        0.0000000000000000     
  0.25000000000000000       0.12500000000000000        0.0000000000000000     
  0.25000000000000000        0.0000000000000000        0.0000000000000000     
  0.28125000000000000        0.0000000000000000        0.0000000000000000     
  0.31250000000000000        0.0000000000000000        0.0000000000000000     
  0.34375000000000000        0.0000000000000000        0.0000000000000000     
  0.37500000000000000        0.0000000000000000        0.0000000000000000     
  0.25000000000000000        3.1250000000000000E-002   0.0000000000000000     
  0.28125000000000000        3.1250000000000000E-002   0.0000000000000000     
  0.31250000000000000        3.1250000000000000E-002   0.0000000000000000     
  0.34375000000000000        3.1250000000000000E-002   0.0000000000000000     
  0.37500000000000000        3.1250000000000000E-002   0.0000000000000000     
  0.25000000000000000        6.2500000000000000E-002   0.0000000000000000     
  0.28125000000000000        6.2500000000000000E-002   0.0000000000000000     
  0.31250000000000000        6.2500000000000000E-002   0.0000000000000000     
  0.34375000000000000        6.2500000000000000E-002   0.0000000000000000     
  0.37500000000000000        6.2500000000000000E-002   0.0000000000000000     
  0.25000000000000000        9.3750000000000000E-002   0.0000000000000000     
  0.28125000000000000        9.3750000000000000E-002   0.0000000000000000     
  0.31250000000000000        9.3750000000000000E-002   0.0000000000000000     
  0.34375000000000000        9.3750000000000000E-002   0.0000000000000000     
  0.37500000000000000        9.3750000000000000E-002   0.0000000000000000     
  0.25000000000000000       0.12500000000000000        0.0000000000000000     
  0.28125000000000000       0.12500000000000000        0.0000000000000000     
  0.31250000000000000       0.12500000000000000        0.0000000000000000     
  0.34375000000000000       0.12500000000000000        0.0000000000000000     
  0.37500000000000000       0.12500000000000000        0.0000000000000000     
  0.37500000000000000        0.0000000000000000        0.0000000000000000     
  0.40625000000000000        0.0000000000000000        0.0000000000000000     
  0.43750000000000000        0.0000000000000000        0.0000000000000000     
  0.46875000000000000        0.0000000000000000        0.0000000000000000     
  0.50000000000000000        0.0000000000000000        0.0000000000000000     
  0.37500000000000000        3.1250000000000000E-002   0.0000000000000000     
  0.40625000000000000        3.1250000000000000E-002   0.0000000000000000     
  0.43750000000000000        3.1250000000000000E-002   0.0000000000000000     
  0.46875000000000000        3.1250000000000000E-002   0.0000000000000000     
  0.50000000000000000        3.1250000000000000E-002   0.0000000000000000     
  0.37500000000000000        6.2500000000000000E-002   0.0000000000000000     
  0.40625000000000000        6.2500000000000000E-002   0.0000000000000000     
  0.43750000000000000        6.2500000000000000E-002   0.0000000000000000     
  0.46875000000000000        6.2500000000000000E-002   0.0000000000000000     
  0.50000000000000000        6.2500000000000000E-002   0.0000000000000000     
  0.37500000000000000        9.3750000000000000E-002   0.0000000000000000     
  0.40625000000000000        9.3750000000000000E-002   0.0000000000000000     
  0.43750000000000000        9.3750000000000000E-002   0.0000000000000000     
  0.46875000000000000        9.3750000000000000E-002   0.0000000000000000     
  0.50000000000000000        9.3750000000000000E-002   0.0000000000000000     
  0.37500000000000000       0.12500000000000000        0.0000000000000000     
  0.40625000000000000       0.12500000000000000        0.0000000000000000     
  0.43750000000000000       0.12500000000000000        0.0000000000000000     
  0.46875000000000000       0.12500000000000000        0.0000000000000000     
  0.50000000000000000       0.12500000000000000        0.0000000000000000     
  0.50000000000000000        0.0000000000000000        0.0000000000000000     
  0.53125000000000000        0.0000000000000000        0.0000000000000000     
  0.56250000000000000        0.0000000000000000        0.0000000000000000     
  0.59375000000000000        0.0000000000000000        0.0000000000000000     
  0.62500000000000000        0.0000000000000000        0.0000000000000000     
  0.50000000000000000        3.1250000000000000E-002   0.0000000000000000     
  0.53125000000000000        3.1250000000000000E-002   0.0000000000000000     
  0.56250000000000000        3.1250000000000000E-002   0.0000000000000000     
  0.59375000000000000        3.1250000000000000E-002   0.0000000000000000     
  0.62500000000000000        3.1250000000000000E-002   0.0000000000000000     
  0.50000000000000000        6.2500000000000000E-002   0.0000000000000000     
  0.53125000000000000        6.2500000000000000E-002   0.0000000000000000     
  0.56250000000000000        6.2500000000000000E-002   0.0000000000000000     
  0.59375000000000000        6.2500000000000000E-002   0.0000000000000000     
  0.62500000000000000        6.2500000000000000E-002   0.0000000000000000     
  0.50000000000000000        9.3750000000000000E-002   0.0000000000000000     
  0.53125000000000000        9.3750000000000000E-002   0.0000000000000000     
  0.56250000000000000        9.3750000000000000E-002   0.0000000000000000     
  0.59375000000000000        9.3750000000000000E-002   0.0000000000000000     
  0.62500000000000000        9.3750000000000000E-002   0.0000000000000000     
  0.50000000000000000       0.12500000000000000        0.0000000000000000     
  0.53125000000000000       0.12500000000000000        0.0000000000000000     
  0.56250000000000000       0.12500000000000000        0.0000000000000000     
[...]
 <PointData>
 <DataArray  type="Float64" Name="disp" NumberOfComponents="3" format="ascii">
   0.0000000000000000        0.0000000000000000        0.0000000000000000     
   6.0961129324630988E-003   3.7904710294614985E-003   0.0000000000000000     
   1.1666190605467506E-002   7.3240803194443340E-003   0.0000000000000000     
   1.6710233019013223E-002   1.0600827869948507E-002   0.0000000000000000     
   2.1228240173100245E-002   1.3620713680974016E-002   0.0000000000000000     
   0.0000000000000000        0.0000000000000000        0.0000000000000000     
   4.8911488882382032E-003   3.0223002051026735E-003   0.0000000000000000     
   9.5735984390240350E-003   6.0609075689108116E-003   0.0000000000000000     
   1.4047348652357489E-002   9.1158220914244158E-003   0.0000000000000000     
   1.8312399528238574E-002   1.2187043772643485E-002   0.0000000000000000     
   0.0000000000000000        0.0000000000000000        0.0000000000000000     
   3.9534738918773965E-003   2.4253451574821165E-003   0.0000000000000000     
   7.9104567689962536E-003   5.0633496111925427E-003   0.0000000000000000     
   1.1870948631356570E-002   7.9140133611312769E-003   0.0000000000000000     
   1.5834949478958353E-002   1.0977336407298321E-002   0.0000000000000000     
   0.0000000000000000        0.0000000000000000        0.0000000000000000     
   3.2830879433806766E-003   1.9996058865998272E-003   0.0000000000000000     
   6.6767655953841650E-003   4.3314064462895256E-003   0.0000000000000000     
   1.0181032956010467E-002   6.9954016790690927E-003   0.0000000000000000     
   1.3795890025259584E-002   9.9915915849385292E-003   0.0000000000000000     
   0.0000000000000000        0.0000000000000000        0.0000000000000000     
   2.8799910427480444E-003   1.7450823924558059E-003   0.0000000000000000     
   5.8725249181877711E-003   3.8650780742017603E-003   0.0000000000000000     
   8.9776016263191788E-003   6.3599870452378613E-003   0.0000000000000000     
   1.2195221167142268E-002   9.2298093055641107E-003   0.0000000000000000     
   2.1228240173100245E-002   1.3620713680974016E-002   0.0000000000000000     
   2.5433176546417073E-002   1.6614176128651327E-002   0.0000000000000000     
   2.9538006617652206E-002   1.9811653589110894E-002   0.0000000000000000     
   3.3542730386805622E-002   2.3213146062352724E-002   0.0000000000000000     
   3.7447347853877357E-002   2.6818653548376807E-002   0.0000000000000000     
   1.8312399528238574E-002   1.2187043772643485E-002   0.0000000000000000     
   2.2406952226060168E-002   1.5342896816565024E-002   0.0000000000000000     
   2.6369207905215158E-002   1.8651705427186038E-002   0.0000000000000000     
   3.0199166565703556E-002   2.2113469604506525E-002   0.0000000000000000     
   3.3896828207525362E-002   2.5728189348526487E-002   0.0000000000000000     
   1.5834949478958353E-002   1.0977336407298321E-002   0.0000000000000000     
   1.9730615949730593E-002   1.4212204200559840E-002   0.0000000000000000     
   2.3486104681602286E-002   1.7577502191781998E-002   0.0000000000000000     
   2.7101415674573442E-002   2.1073230380964793E-002   0.0000000000000000     
   3.0576548928644063E-002   2.4699388768108229E-002   0.0000000000000000     
   1.3795890025259584E-002   9.9915915849385292E-003   0.0000000000000000     
   1.7404167717428344E-002   1.3222098280635782E-002   0.0000000000000000     
   2.0888696946813577E-002   1.6589043882898776E-002   0.0000000000000000     
   2.4249477713415291E-002   2.0092428391727528E-002   0.0000000000000000     
   2.7486510017233474E-002   2.3732251807122025E-002   0.0000000000000000     
   1.2195221167142268E-002   9.2298093055641107E-003   0.0000000000000000     
   1.5427607529153424E-002   1.2372579056792839E-002   0.0000000000000000     
   1.8576984700849029E-002   1.5686330500536375E-002   0.0000000000000000     
   2.1643352682229083E-002   1.9171063636794723E-002   0.0000000000000000     
   2.4626711473293594E-002   2.2826778465567878E-002   0.0000000000000000     
   3.7447347853877357E-002   2.6818653548376807E-002   0.0000000000000000     
   4.1255492799345227E-002   3.0624198755884926E-002   0.0000000000000000     
   4.4970799003687084E-002   3.4625804393578832E-002   0.0000000000000000     
   4.8593266466902950E-002   3.8823470461458544E-002   0.0000000000000000     
   5.2122895188992796E-002   4.3217196959524043E-002   0.0000000000000000     
   3.3896828207525362E-002   2.5728189348526487E-002   0.0000000000000000     
   3.7485075529219258E-002   2.9525063704817407E-002   0.0000000000000000     
   4.0986791229323999E-002   3.3533291718950767E-002   0.0000000000000000     
   4.4401975307839535E-002   3.7752873390926547E-002   0.0000000000000000     
   4.7730627764765915E-002   4.2183808720744773E-002   0.0000000000000000     
   3.0576548928644063E-002   2.4699388768108229E-002   0.0000000000000000     
   3.3940936234005903E-002   2.8500641480376999E-002   0.0000000000000000     
   3.7224009380850735E-002   3.2521652644935797E-002   0.0000000000000000     
   4.0425768369178550E-002   3.6762422261784625E-002   0.0000000000000000     
   4.3546213198989353E-002   4.1222950330923491E-002   0.0000000000000000     
   2.7486510017233474E-002   2.3732251807122025E-002   0.0000000000000000     
   3.0623074913705146E-002   2.7550932082563689E-002   0.0000000000000000     
   3.3682453458267314E-002   3.1590887171533931E-002   0.0000000000000000     
   3.6664645650919973E-002   3.5852117074032769E-002   0.0000000000000000     
   3.9569651491663131E-002   4.0334621790060171E-002   0.0000000000000000     
   2.4626711473293594E-002   2.2826778465567878E-002   0.0000000000000000     
   2.7531491568316989E-002   2.6675935511377483E-002   0.0000000000000000     
   3.0362123461573735E-002   3.0740995298745178E-002   0.0000000000000000     
   3.3118607153063820E-002   3.5021957827670959E-002   0.0000000000000000     
   3.5800942642787235E-002   3.9518823098154833E-002   0.0000000000000000     
   5.2122895188992796E-002   4.3217196959524043E-002   0.0000000000000000     
   5.5554563698835685E-002   4.7807696624433960E-002   0.0000000000000000     
   5.8883150525310658E-002   5.2595682192846951E-002   0.0000000000000000     
   6.2108655668417723E-002   5.7581153664762991E-002   0.0000000000000000     
   6.5231079128156857E-002   6.2764111040182077E-002   0.0000000000000000     
   4.7730627764765915E-002   4.2183808720744773E-002   0.0000000000000000     
   5.0968611567061492E-002   4.6816782752102340E-002   0.0000000000000000     
   5.4111789681684688E-002   5.1642480528696126E-002   0.0000000000000000     
   5.7160162108635469E-002   5.6660902050526166E-002   0.0000000000000000     
   6.0113728847913869E-002   6.1872047317592452E-002   0.0000000000000000     
   4.3546213198989353E-002   4.1222950330923491E-002   0.0000000000000000     
   4.6582507014021522E-002   4.5888822142471031E-002   0.0000000000000000     
   4.9531812958013392E-002   5.0745622986545919E-002   0.0000000000000000     
   5.2394131030964991E-002   5.5793352863148148E-002   0.0000000000000000     
   5.5169461232876298E-002   6.1032011772277725E-002   0.0000000000000000     
   3.9569651491663131E-002   4.0334621790060171E-002   0.0000000000000000     
   4.2396250039715741E-002   4.5023814795540046E-002   0.0000000000000000     
   4.5143220354296798E-002   4.9905109566396301E-002   0.0000000000000000     
   4.7810562435406261E-002   5.4978506102628909E-002   0.0000000000000000     
   5.0398276283044156E-002   6.0244004404237904E-002   0.0000000000000000     
   3.5800942642787235E-002   3.9518823098154833E-002   0.0000000000000000     
   3.8409840644144190E-002   4.4221760711309406E-002   0.0000000000000000     
   4.0946011870534878E-002   4.9120940268247294E-002   0.0000000000000000     
   4.3409456321959292E-002   5.4216361768968491E-002   0.0000000000000000     
   4.5800173998417432E-002   5.9508025213472988E-002   0.0000000000000000     
   6.5231079128156857E-002   6.2764111040182077E-002   0.0000000000000000     
   6.8258626903712830E-002   6.8140334304492220E-002   0.0000000000000000     
   7.1199504994270385E-002   7.3705603443081399E-002   0.0000000000000000     
   7.4053713399829496E-002   7.9459918455949616E-002   0.0000000000000000     
   7.6821252120390204E-002   8.5403279343096855E-002   0.0000000000000000     
   6.0113728847913869E-002   6.1872047317592452E-002   0.0000000000000000     
   6.2976797606740520E-002   6.7274089812943805E-002   0.0000000000000000     
   6.5753676092336066E-002   7.2865203019629066E-002   0.0000000000000000     
   6.8444364304700522E-002   7.8645386937648248E-002   0.0000000000000000     
   7.1048862243833860E-002   8.4614641567001367E-002   0.0000000000000000     
   5.5169461232876298E-002   6.1032011772277725E-002   0.0000000000000000     
   5.7859262055682564E-002   6.6460246681464094E-002   0.0000000000000000     
   6.0464991991318988E-002   7.2076704558236754E-002   0.0000000000000000     
   6.2986651039785582E-002   7.7881385402595663E-002   0.0000000000000000     
   6.5424239201082326E-002   8.3874289214540848E-002   0.0000000000000000     
   5.0398276283044156E-002   6.0244004404237904E-002   0.0000000000000000     
   5.2906020250538956E-002   6.5698804910053102E-002   0.0000000000000000     
   5.5333452691219129E-002   7.1340108058904422E-002   0.0000000000000000     
   5.7680573605084662E-002   7.7167913850791789E-002   0.0000000000000000     
   5.9947382992135576E-002   8.3182222285715299E-002   0.0000000000000000     
   4.5800173998417432E-002   5.9508025213472988E-002   0.0000000000000000     
   4.8117072191309701E-002   6.4989764498710842E-002   0.0000000000000000     
   5.0359058192036475E-002   7.0655413521632085E-002   0.0000000000000000     
   5.2526132000597782E-002   7.6504972282236711E-002   0.0000000000000000     
   5.4618293616993600E-002   8.2538440780524719E-002   0.0000000000000000     
   7.6821252120390204E-002   8.5403279343096855E-002   0.0000000000000000     
   7.9494783972527572E-002   9.1515035691938987E-002   0.0000000000000000     
   8.2066971772816757E-002   9.7774537089891880E-002   0.0000000000000000     
   8.4537815521257734E-002  0.10418178353695551        0.0000000000000000     
   8.6907315217850500E-002  0.11073677503312990        0.0000000000000000     
   7.1048862243833860E-002   8.4614641567001367E-002   0.0000000000000000     
   7.3563723423291566E-002   9.0752790065746602E-002   0.0000000000000000     
   7.5985501356629084E-002   9.7039655591942164E-002   0.0000000000000000     
   7.8314196043846374E-002  0.10347523814558808        0.0000000000000000     
   8.0549807484943517E-002  0.11005953772668435        0.0000000000000000     
   6.5424239201082326E-002   8.3874289214540848E-002   0.0000000000000000     
   6.7777022287388591E-002   9.0036441530151209E-002   0.0000000000000000     
   7.0044266110883699E-002   9.6348867885505618E-002   0.0000000000000000     
   7.2225970671567705E-002  0.10281156828060413        0.0000000000000000     
   7.4322135969440525E-002  0.10942454271544670        0.0000000000000000     
   5.9947382992135576E-002   8.3182222285715299E-002   0.0000000000000000     
   6.2134680564818641E-002   8.9365990085152808E-002   0.0000000000000000     
   6.4243266035580657E-002   9.5702173970582255E-002   0.0000000000000000     
   6.6273139404421616E-002  0.10219077394200363        0.0000000000000000     
   6.8224300671341553E-002  0.10883178999941695        0.0000000000000000     
   5.4618293616993600E-002   8.2538440780524719E-002   0.0000000000000000     
   5.6636698255581722E-002   8.8741435730751425E-002   0.0000000000000000     
   5.8582501130719916E-002   9.5099573847172034E-002   0.0000000000000000     
   6.0455702242408198E-002  0.10161285512978659        0.0000000000000000     
   6.2256301590646546E-002  0.10828127957859508        0.0000000000000000     
   8.6907315217850500E-002  0.11073677503312990        0.0000000000000000     
   8.9174235626889670E-002  0.11743825688900396        0.0000000000000000     
   9.1337341512669881E-002  0.12428497441516669        0.0000000000000000     
   9.3396632875191107E-002  0.13127692761161799        0.0000000000000000     
   9.5352109714453376E-002  0.13841411647835800        0.0000000000000000     
   8.0549807484943517E-002  0.11005953772668435        0.0000000000000000     
   8.2693360212009778E-002  0.11679022304057766        0.0000000000000000     
   8.4745878757134518E-002  0.12366496279261478        0.0000000000000000     
   8.6707363120317710E-002  0.13068375698279566        0.0000000000000000     
   8.8577813301559394E-002  0.13784660561112036        0.0000000000000000     
   7.4322135969440525E-002  0.10942454271544670        0.0000000000000000     
   7.6334906353785717E-002  0.11618373776720242        0.0000000000000000     
   7.8266426173886780E-002  0.12308510001304032        0.0000000000000000     
   8.0116695429743701E-002  0.13012862945296044        0.0000000000000000     
   8.1885714121356479E-002  0.13731432608696278        0.0000000000000000     
   6.8224300671341553E-002  0.10883178999941695        0.0000000000000000     
   7.0098874052217527E-002  0.11561880106887819        0.0000000000000000     
   7.1898983762926694E-002  0.12254538607644333        0.0000000000000000     
   7.3624629803469066E-002  0.12961154502211233        0.0000000000000000     
   7.5275812173844603E-002  0.13681727790588530        0.0000000000000000     
   6.2256301590646546E-002  0.10828127957859508        0.0000000000000000     
   6.3985263307305168E-002  0.11509541294560498        0.0000000000000000     
   6.5643551524254246E-002  0.12204582098282374        0.0000000000000000     
   6.7231166241493792E-002  0.12913250369025137        0.0000000000000000     
   6.8748107459023794E-002  0.13635546106788785        0.0000000000000000     
   9.5352109714453376E-002  0.13841411647835800        0.0000000000000000     
   9.7163501932674284E-002  0.14566650640896789        0.0000000000000000     
   9.8790539432071514E-002  0.15300406279702897        0.0000000000000000     
  0.10023322221264501       0.16042678564254120        0.0000000000000000     
  0.10149155027439481       0.16793467494550463        0.0000000000000000     
   8.8577813301559394E-002  0.13784660561112036        0.0000000000000000     
   9.0344548703025621E-002  0.14512513993012360        0.0000000000000000     
   9.1994888726882440E-002  0.15249099119234005        0.0000000000000000     
   9.3528833373129894E-002  0.15994415939776979        0.0000000000000000     
   9.4946382641767940E-002  0.16748464454641282        0.0000000000000000     
   8.1885714121356479E-002  0.13731432608696278        0.0000000000000000     
   8.3578053568601568E-002  0.14461666568302156        0.0000000000000000     
   8.5198285091355422E-002  0.15201012400911096        0.0000000000000000     
   8.6746408689618068E-002  0.15949470106523098        0.0000000000000000     
   8.8222424363389479E-002  0.16707039685138164        0.0000000000000000     
   7.5275812173844603E-002  0.13681727790588530        0.0000000000000000     
   7.6864016529402154E-002  0.14414108366766182        0.0000000000000000     
   7.8400728525490460E-002  0.15156146124734160        0.0000000000000000     
   7.9885948162109574E-002  0.15907841064492467        0.0000000000000000     
   8.1319675439259428E-002  0.16669193186041104        0.0000000000000000     
   6.8748107459023794E-002  0.13635546106788785        0.0000000000000000     
   7.0202437585427338E-002  0.14369839388404437        0.0000000000000000     
   7.1602219029287525E-002  0.15114500290703209        0.0000000000000000     
   7.2947451790604342E-002  0.15869528813685099        0.0000000000000000     
   7.4238135869377789E-002  0.16634924957350106        0.0000000000000000     
   0.0000000000000000        0.0000000000000000        0.0000000000000000     
   2.8799910427480444E-003   1.7450823924558059E-003   0.0000000000000000     
   5.8725249181877711E-003   3.8650780742017603E-003   0.0000000000000000     
   8.9776016263191788E-003   6.3599870452378613E-003   0.0000000000000000     
   1.2195221167142268E-002   9.2298093055641107E-003   0.0000000000000000     
   0.0000000000000000        0.0000000000000000        0.0000000000000000     
   2.6103028230248914E-003   1.5891333241172473E-003   0.0000000000000000     
   5.2896993762720883E-003   3.5570728314082783E-003   0.0000000000000000     
   8.0381896597415906E-003   5.9038185218730924E-003   0.0000000000000000     
   1.0855773673433397E-002   8.6293703955116902E-003   0.0000000000000000     
   0.0000000000000000        0.0000000000000000        0.0000000000000000     
   2.3401429172566087E-003   1.4591173306513459E-003   0.0000000000000000     
   4.7202536085021382E-003   3.3000990543881098E-003   0.0000000000000000     
   7.1403320737365890E-003   5.5229451712102912E-003   0.0000000000000000     
   9.6003783129599597E-003   8.1276556811178905E-003   0.0000000000000000     
   0.0000000000000000        0.0000000000000000        0.0000000000000000     
   2.0695113254431963E-003   1.3550344120581020E-003   0.0000000000000000     
   4.1641876148779209E-003   3.0941567431412554E-003   0.0000000000000000     
   6.2840288683041739E-003   5.2173669932494603E-003   0.0000000000000000     
   8.4290350857219552E-003   7.7246651623827153E-003   0.0000000000000000     
   0.0000000000000000        0.0000000000000000        0.0000000000000000     
   1.7984080475846546E-003   1.2768845683375151E-003   0.0000000000000000     
   3.6215013953994372E-003   2.9392458976677145E-003   0.0000000000000000     
   5.4692800434443471E-003   4.9870839879905971E-003   0.0000000000000000     
   7.3417439917193858E-003   7.4203988393061653E-003   0.0000000000000000     
   1.2195221167142268E-002   9.2298093055641107E-003   0.0000000000000000     
   1.5427607529153424E-002   1.2372579056792839E-002   0.0000000000000000     
   1.8576984700849029E-002   1.5686330500536375E-002   0.0000000000000000     
   2.1643352682229083E-002   1.9171063636794723E-002   0.0000000000000000     
   2.4626711473293594E-002   2.2826778465567878E-002   0.0000000000000000     
   1.0855773673433397E-002   8.6293703955116902E-003   0.0000000000000000     
   1.3689126838969102E-002   1.1651545926908969E-002   0.0000000000000000     
   1.6484924577970295E-002   1.4888162590649836E-002   0.0000000000000000     
   1.9243166890436984E-002   1.8339220386734290E-002   0.0000000000000000     
   2.1963853776369162E-002   2.2004719315162326E-002   0.0000000000000000     
   9.6003783129599597E-003   8.1276556811178905E-003   0.0000000000000000     
   1.2076917100938644E-002   1.1046898288862121E-002   0.0000000000000000     
   1.4546473212439032E-002   1.4213340699194202E-002   0.0000000000000000     
   1.7009046647461123E-002   1.7626982912114130E-002   0.0000000000000000     
   1.9464637406004917E-002   2.1287824927621900E-002   0.0000000000000000     
   8.4290350857219552E-003   7.7246651623827153E-003   0.0000000000000000     
   1.0590978315062049E-002   1.0558636142652296E-002   0.0000000000000000     
   1.2761630604255232E-002   1.3661864826169469E-002   0.0000000000000000     
   1.4940991953301504E-002   1.7034351212934239E-002   0.0000000000000000     
   1.7129062362200874E-002   2.0676095302946611E-002   0.0000000000000000     
   7.3417439917193858E-003   7.4203988393061653E-003   0.0000000000000000     
   9.2313104813393151E-003   1.0186759488279490E-002   0.0000000000000000     
   1.1130396753418897E-002   1.3233734971575645E-002   0.0000000000000000     
   1.3039002807958134E-002   1.6561325289194628E-002   0.0000000000000000     
   1.4957128644957024E-002   2.0169530441136445E-002   0.0000000000000000     
   2.4626711473293594E-002   2.2826778465567878E-002   0.0000000000000000     
   2.7531491568316989E-002   2.6675935511377483E-002   0.0000000000000000     