 <VTKFile type="UnstructuredGrid"  version="0.1"   >
 <UnstructuredGrid>
 <Piece  NumberOfPoints="          1600 "  NumberOfCells="         1024 ">
 <Points>
 <DataArray  type="Float64" NumberOfComponents="3"  format="ascii" >
   0.0000000000000000        0.0000000000000000        0.0000000000000000     
   3.1250000000000000E-002   0.0000000000000000        0.0000000000000000     
   6.2500000000000000E-002   0.0000000000000000        0.0000000000000000     
   9.3750000000000000E-002   0.0000000000000000        0.0000000000000000     
  0.12500000000000000        0.0000000000000000        0.0000000000000000     
   0.0000000000000000        3.1250000000000000E-002   0.0000000000000000     
   3.1250000000000000E-002   3.1250000000000000E-002   0.0000000000000000     
   6.2500000000000000E-002   3.1250000000000000E-002   0.0000000000000000     
   9.3750000000000000E-002   3.1250000000000000E-002   0.0000000000000000     
  0.12500000000000000        3.1250000000000000E-002   0.0000000000000000     
   0.0000000000000000        6.2500000000000000E-002   0.0000000000000000     
   3.1250000000000000E-002   6.2500000000000000E-002   0.0000000000000000     
   6.2500000000000000E-002   6.2500000000000000E-002   0.0000000000000000     
   9.3750000000000000E-002   6.2500000000000000E-002   0.0000000000000000     
  0.12500000000000000        6.2500000000000000E-002   0.0000000000000000     
   0.0000000000000000        9.3750000000000000E-002   0.0000000000000000     
   3.1250000000000000E-002   9.3750000000000000E-002   0.0000000000000000     
   6.2500000000000000E-002   9.3750000000000000E-002   0.0000000000000000     
   9.3750000000000000E-002   9.3750000000000000E-002   0.0000000000000000     
  0.12500000000000000        9.3750000000000000E-002   0.0000000000000000     
   0.0000000000000000       0.12500000000000000        0.0000000000000000     
   3.1250000000000000E-002  0.12500000000000000        0.0000000000000000     
   6.2500000000000000E-002  0.12500000000000000        0.0000000000000000     
   9.3750000000000000E-002  0.12500000000000000        0.0000000000000000     
  0.12500000000000000       0.12500000000000000        0.0000000000000000     
  0.12500000000000000        0.0000000000000000        0.0000000000000000     
  0.15625000000000000        0.0000000000000000        0.0000000000000000     
  0.18750000000000000        0.0000000000000000        0.0000000000000000     
  0.21875000000000000        0.0000000000000000        0.0000000000000000     
  0.25000000000000000        0.0000000000000000        0.0000000000000000     
  0.12500000000000000        3.1250000000000000E-002   0.0000000000000000     
  0.15625000000000000        3.1250000000000000E-002   0.0000000000000000     
  0.18750000000000000        3.1250000000000000E-002   0.0000000000000000     
  0.21875000000000000        3.1250000000000000E-002   0.0000000000000000     
  0.25000000000000000        3.1250000000000000E-002   0.0000000000000000     
  0.12500000000000000        6.2500000000000000E-002   0.0000000000000000     
  0.15625000000000000        6.2500000000000000E-002   0.0000000000000000     
  0.18750000000000000        6.2500000000000000E-002   0.0000000000000000     
  0.21875000000000000        6.2500000000000000E-002   0.0000000000000000     
  0.25000000000000000        6.2500000000000000E-002   0.0000000000000000     
  0.12500000000000000        9.3750000000000000E-002   0.0000000000000000     
  0.15625000000000000        9.3750000000000000E-002   0.0000000000000000     
  0.18750000000000000        9.3750000000000000E-002   0.0000000000000000     
  0.21875000000000000        9.3750000000000000E-002   0.0000000000000000     
  0.25000000000000000        9.3750000000000000E-002   0.0000000000000000     
  0.12500000000000000       0.12500000000000000        0.0000000000000000     
  0.15625000000000000       0.12500000000000000        0.0000000000000000     
  0.18750000000000000       0.12500000000000000        0.0000000000000000     
  0.21875000000000000       0.12500000000000000        0.0000000000000000     
  0.25000000000000000       0.12500000000000000        0.0000000000000000     
  0.25000000000000000        0.0000000000000000        0.0000000000000000     
  0.28125000000000000        0.0000000000000000        0.0000000000000000     
  0.31250000000000000        0.0000000000000000        0.0000000000000000     
  0.34375000000000000        0.0000000000000000        0.0000000000000000     
  0.37500000000000000        0.0000000000000000        0.0000000000000000     
  0.25000000000000000        3.1250000000000000E-002   0.0000000000000000     
  0.28125000000000000        3.1250000000000000E-002   0.0000000000000000     
  0.31250000000000000        3.1250000000000000E-002   0.0000000000000000     
  0.34375000000000000        3.1250000000000000E-002   0.0000000000000000     
  0.37500000000000000        3.1250000000000000E-002   0.0000000000000000     
  0.25000000000000000        6.2500000000000000E-002   0.0000000000000000     
  0.28125000000000000        6.2500000000000000E-002   0.0000000000000000     
  0.31250000000000000        6.2500000000000000E-002   0.0000000000000000     
  0.34375000000000000        6.2500000000000000E-002   0.0000000000000000     
  0.37500000000000000        6.2500000000000000E-002   0.0000000000000000     
  0.25000000000000000        9.3750000000000000E-002   0.0000000000000000     
  0.28125000000000000        9.3750000000000000E-002   0.0000000000000000     
  0.31250000000000000        9.3750000000000000E-002   0.0000000000000000     
  0.34375000000000000        9.3750000000000000E-002   0.0000000000000000     
  0.37500000000000000        9.3750000000000000E-002   0.0000000000000000     
  0.25000000000000000       0.12500000000000000        0.0000000000000000     
  0.28125000000000000       0.12500000000000000        0.0000000000000000     
  0.31250000000000000       0.12500000000000000        0.0000000000000000     
  0.34375000000000000       0.12500000000000000        0.0000000000000000     
  0.37500000000000000       0.12500000000000000        0.0000000000000000     
  0.37500000000000000        0.0000000000000000        0.0000000000000000     
  0.40625000000000000        0.0000000000000000        0.0000000000000000     
  0.43750000000000000        0.0000000000000000        0.0000000000000000     
  0.46875000000000000        0.0000000000000000        0.0000000000000000     
  0.50000000000000000        0.0000000000000000        0.0000000000000000     
  0.37500000000000000        3.1250000000000000E-002   0.0000000000000000     
  0.40625000000000000        3.1250000000000000E-002   0.0000000000000000     
  0.43750000000000000        3.1250000000000000E-002   0.0000000000000000     
  0.46875000000000000        3.1250000000000000E-002   0.0000000000000000     
  0.50000000000000000        3.1250000000000000E-002   0.0000000000000000     
  0.37500000000000000        6.2500000000000000E-002   0.0000000000000000     
  0.40625000000000000        6.2500000000000000E-002   0.0000000000000000     
  0.43750000000000000        6.2500000000000000E-002   0.0000000000000000     
  0.46875000000000000        6.2500000000000000E-002   0.0000000000000000     
  0.50000000000000000        6.2500000000000000E-002   0.0000000000000000     
  0.37500000000000000        9.3750000000000000E-002   0.0000000000000000     
  0.40625000000000000        9.3750000000000000E-002   0.0000000000000000     
  0.43750000000000000        9.3750000000000000E-002   0.0000000000000000     
  0.46875000000000000        9.3750000000000000E-002   0.0000000000000000     
  0.50000000000000000        9.3750000000000000E-002   0.0000000000000000     
  0.37500000000000000       0.12500000000000000        0.0000000000000000     
  0.40625000000000000       0.12500000000000000        0.0000000000000000     
  0.43750000000000000       0.12500000000000000        0.0000000000000000     
  0.46875000000000000       0.12500000000000000        0.0000000000000000     
  0.50000000000000000       0.12500000000000000        0.0000000000000000     
  0.50000000000000000        0.0000000000000000        0.0000000000000000     
  0.53125000000000000        0.0000000000000000        0.0000000000000000     
  0.56250000000000000        0.0000000000000000        0.0000000000000000     
  0.59375000000000000        0.0000000000000000        0.0000000000000000     
  0.62500000000000000        0.0000000000000000        0.0000000000000000     
  0.50000000000000000        3.1250000000000000E-002   0.0000000000000000     
  0.53125000000000000        3.1250000000000000E-002   0.0000000000000000     
  0.56250000000000000        3.1250000000000000E-002   0.0000000000000000     
  0.59375000000000000        3.1250000000000000E-002   0.0000000000000000     
  0.62500000000000000        3.1250000000000000E-002   0.0000000000000000     
  0.50000000000000000        6.2500000000000000E-002   0.0000000000000000     
  0.53125000000000000        6.2500000000000000E-002   0.0000000000000000     
  0.56250000000000000        6.2500000000000000E-002   0.0000000000000000     
  0.59375000000000000        6.2500000000000000E-002   0.0000000000000000     
  0.62500000000000000        6.2500000000000000E-002   0.0000000000000000     
  0.50000000000000000        9.3750000000000000E-002   0.0000000000000000     
  0.53125000000000000        9.3750000000000000E-002   0.0000000000000000     
  0.56250000000000000        9.3750000000000000E-002   0.0000000000000000     
  0.59375000000000000        9.3750000000000000E-002   0.0000000000000000     
  0.62500000000000000        9.3750000000000000E-002   0.0000000000000000     
  0.50000000000000000       0.12500000000000000        0.0000000000000000     
  0.53125000000000000       0.12500000000000000        0.0000000000000000     
  0.56250000000000000       0.12500000000000000        0.0000000000000000     
[...]
 <PointData>
 <DataArray  type="Float64" Name="disp" NumberOfComponents="3" format="ascii">
   0.0000000000000000        0.0000000000000000        0.0000000000000000     
   6.0959784186110973E-003   3.7902781767273973E-003   0.0000000000000000     
   1.1666047923581115E-002   7.3236998793416910E-003   0.0000000000000000     
   1.6710208514910049E-002   1.0600265107842882E-002   0.0000000000000000     
   2.1228460192597901E-002   1.3619973862230969E-002   0.0000000000000000     
   0.0000000000000000        0.0000000000000000        0.0000000000000000     
   4.8911599416887061E-003   3.0220657562856756E-003   0.0000000000000000     
   9.5736560233575640E-003   6.0604730558672833E-003   0.0000000000000000     
   1.4047488245006571E-002   9.1152218987448231E-003   0.0000000000000000     
   1.8312656606635735E-002   1.2186312284918293E-002   0.0000000000000000     
   0.0000000000000000        0.0000000000000000        0.0000000000000000     
   3.9535694870834600E-003   2.4250906182124556E-003   0.0000000000000000     
   7.9106280464204086E-003   5.0628902021653995E-003   0.0000000000000000     
   1.1871175678010845E-002   7.9133987518588307E-003   0.0000000000000000     
   1.5835212381854771E-002   1.0976616267292749E-002   0.0000000000000000     
   0.0000000000000000        0.0000000000000000        0.0000000000000000     
   3.2832070547953594E-003   1.9993527625077386E-003   0.0000000000000000     
   6.6769639927696470E-003   4.3309513182360404E-003   0.0000000000000000     
   1.0181270813922864E-002   6.9947956671849061E-003   0.0000000000000000     
   1.3796127518255010E-002   9.9908858093543332E-003   0.0000000000000000     
   0.0000000000000000        0.0000000000000000        0.0000000000000000     
   2.8800726448244035E-003   1.7448521891715240E-003   0.0000000000000000     
   5.8726638624052819E-003   3.8646564040792069E-003   0.0000000000000000     
   8.9777736527426339E-003   6.3594126447230484E-003   0.0000000000000000     
   1.2195402015836460E-002   9.2291209111030510E-003   0.0000000000000000     
   2.1228460192597901E-002   1.3619973862230969E-002   0.0000000000000000     
   2.5433609852209219E-002   1.6613185290626928E-002   0.0000000000000000     
   2.9538464389308551E-002   1.9810258541151732E-002   0.0000000000000000     
   3.3543023803895892E-002   2.3211193613805383E-002   0.0000000000000000     
   3.7447288095971240E-002   2.6815990508587878E-002   0.0000000000000000     
   1.8312656606635735E-002   1.2186312284918293E-002   0.0000000000000000     
   2.2407360816189697E-002   1.5341938171703304E-002   0.0000000000000000     
   2.6369800581613135E-002   1.8650293516415464E-002   0.0000000000000000     
   3.0199975902906039E-002   2.2111378319054773E-002   0.0000000000000000     
   3.3897886780068401E-002   2.5725192579621230E-002   0.0000000000000000     
   1.5835212381854771E-002   1.0976616267292749E-002   0.0000000000000000     
   1.9730978723499670E-002   1.4211274776019505E-002   0.0000000000000000     
   2.3486715268493032E-002   1.7576106305591459E-002   0.0000000000000000     
   2.7102422016834864E-002   2.1071110856008608E-002   0.0000000000000000     
   3.0578098968525154E-002   2.4696288427270952E-002   0.0000000000000000     
   1.3796127518255010E-002   9.9908858093543332E-003   0.0000000000000000     
   1.7404463574139131E-002   1.3221195103575535E-002   0.0000000000000000     
   2.0889208449948245E-002   1.6587696908679721E-002   0.0000000000000000     
   2.4250362145682370E-002   2.0090391224666888E-002   0.0000000000000000     
   2.7487924661341503E-002   2.3729278051537041E-002   0.0000000000000000     
   1.2195402015836460E-002   9.2291209111030510E-003   0.0000000000000000     
   1.5427815368108069E-002   1.2371699154371389E-002   0.0000000000000000     
   1.8577280125978771E-002   1.5685065325680245E-002   0.0000000000000000     
   2.1643796289448559E-002   1.9169219425029617E-002   0.0000000000000000     
   2.4627363858517441E-002   2.2824161452419511E-002   0.0000000000000000     
   3.7447288095971240E-002   2.6815990508587878E-002   0.0000000000000000     
   4.1255851415481250E-002   3.0620551553532053E-002   0.0000000000000000     
   4.4973307912372550E-002   3.4620779076670716E-002   0.0000000000000000     
   4.8599657586645161E-002   3.8816673078003891E-002   0.0000000000000000     
   5.2134900438299062E-002   4.3208233557531561E-002   0.0000000000000000     
   3.3897886780068401E-002   2.5725192579621230E-002   0.0000000000000000     
   3.7486667329691623E-002   2.9520975801899718E-002   0.0000000000000000     
   4.0989451668367080E-002   3.3527967489675133E-002   0.0000000000000000     
   4.4406239796094794E-002   3.7746167642947456E-002   0.0000000000000000     
   4.7737031712874751E-002   4.2175576261716710E-002   0.0000000000000000     
   3.0578098968525154E-002   2.4696288427270952E-002   0.0000000000000000     
   3.3942983343389035E-002   2.8496476677762346E-002   0.0000000000000000     
   3.7226312361251630E-002   3.2516513265866638E-002   0.0000000000000000     
   4.0428086022112945E-002   3.6756398191583842E-002   0.0000000000000000     
   4.3548304325972967E-002   4.1216131454913943E-002   0.0000000000000000     
   2.7487924661341503E-002   2.3729278051537041E-002   0.0000000000000000     
   3.0624799456573489E-002   2.7547054181119919E-002   0.0000000000000000     
   3.3683889991026193E-002   3.1586416405245253E-002   0.0000000000000000     
   3.6665196264699593E-002   3.5847364723913033E-002   0.0000000000000000     
   3.9568718277593708E-002   4.0329899137123267E-002   0.0000000000000000     
   2.4627363858517441E-002   2.2824161452419511E-002   0.0000000000000000     
   2.7532115669244985E-002   2.6672708311972441E-002   0.0000000000000000     
   3.0362184557690755E-002   3.0737676907810950E-002   0.0000000000000000     
   3.3117570523854736E-002   3.5019067239935024E-002   0.0000000000000000     
   3.5798273567736960E-002   3.9516879308344674E-002   0.0000000000000000     
   5.2134900438299062E-002   4.3208233557531561E-002   0.0000000000000000     
   5.5575453618335977E-002   4.7798888245540211E-002   0.0000000000000000     
   5.8917734277757636E-002   5.2592064872316310E-002   0.0000000000000000     
   6.2161742416564032E-002   5.7587763437859860E-002   0.0000000000000000     
   6.5307478034755159E-002   6.2785983942170873E-002   0.0000000000000000     
   4.7737031712874751E-002   4.2175576261716710E-002   0.0000000000000000     
   5.0977810781442125E-002   4.6808811759703979E-002   0.0000000000000000     
   5.4124560364532052E-002   5.1638492550630383E-002   0.0000000000000000     
   5.7177280462144556E-002   5.6664618634495928E-002   0.0000000000000000     
   6.0135971074279621E-002   6.1887190011300594E-002   0.0000000000000000     
   4.3548304325972967E-002   4.1216131454913943E-002   0.0000000000000000     
   4.6583425041556679E-002   4.5882542118454599E-002   0.0000000000000000     
   4.9529905937589040E-002   5.0742459244803438E-002   0.0000000000000000     
   5.2387747014070035E-002   5.5795882833960468E-002   0.0000000000000000     
   5.5156948270999678E-002   6.1042812885925675E-002   0.0000000000000000     
   3.9568718277593708E-002   4.0329899137123267E-002   0.0000000000000000     
   4.2392296398679662E-002   4.5020079321792042E-002   0.0000000000000000     
   4.5133770996928592E-002   4.9903964954835456E-002   0.0000000000000000     
   4.7793142072340491E-002   5.4981556036253473E-002   0.0000000000000000     
   5.0370409624915347E-002   6.0252852566046136E-002   0.0000000000000000     
   3.5798273567736960E-002   3.9516879308344674E-002   0.0000000000000000     
   3.8404424852811064E-002   4.4221423369716337E-002   0.0000000000000000     
   4.0936155542550715E-002   4.9123009680726436E-002   0.0000000000000000     
   4.3393465636955897E-002   5.4221638241374978E-002   0.0000000000000000     
   4.5776355136026625E-002   5.9517309051661957E-002   0.0000000000000000     
   6.5307478034755159E-002   6.2785983942170873E-002   0.0000000000000000     
   6.8359479615289570E-002   6.8174689677094530E-002   0.0000000000000000     
   7.1322285641125804E-002   7.3741843934476040E-002   0.0000000000000000     
   7.4195896112263848E-002   7.9487446714315374E-002   0.0000000000000000     
   7.6980311028703730E-002   8.5411498016612561E-002   0.0000000000000000     
   6.0135971074279621E-002   6.1887190011300594E-002   0.0000000000000000     
   6.3004549968470255E-002   6.7298561360823239E-002   0.0000000000000000     
   6.5786934912249448E-002   7.2891087362842708E-002   0.0000000000000000     
   6.8483125905617212E-002   7.8664768017359013E-002   0.0000000000000000     
   7.1093122948573534E-002   8.4619603324372156E-002   0.0000000000000000     
   5.5156948270999678E-002   6.1042812885925675E-002   0.0000000000000000     
   5.7840619769826525E-002   6.6477799278520461E-002   0.0000000000000000     
   6.0441871571999081E-002   7.2095391889566179E-002   0.0000000000000000     
   6.2960703677517355E-002   7.7895590719062824E-002   0.0000000000000000     
   6.5397116086381352E-002   8.3878395767010422E-002   0.0000000000000000     
   5.0370409624915347E-002   6.0252852566046136E-002   0.0000000000000000     
   5.2867689019358365E-002   6.5712403430186181E-002   0.0000000000000000     
   5.5287095620374663E-002   7.1354757514646414E-002   0.0000000000000000     
   5.7628629427964262E-002   7.7179914819426779E-002   0.0000000000000000     
   5.9892290442127155E-002   8.3187875344527346E-002   0.0000000000000000     
   4.5776355136026625E-002   5.9517309051661957E-002   0.0000000000000000     
   4.8085757717065768E-002   6.5002373815820413E-002   0.0000000000000000     
   5.0322607057376206E-002   7.0669184238083410E-002   0.0000000000000000     
   5.2486903156957934E-002   7.6517740318450919E-002   0.0000000000000000     
   5.4578646015810944E-002   8.2548042056922954E-002   0.0000000000000000     
   7.6980311028703730E-002   8.5411498016612561E-002   0.0000000000000000     
   7.9668509326385861E-002   9.1504581681112140E-002   0.0000000000000000     
   8.2253469941250767E-002   9.7757281547558625E-002   0.0000000000000000     
   8.4735192873298379E-002  0.10416959761595204        0.0000000000000000     
   8.7113678122528737E-002  0.11074152988629238        0.0000000000000000     
   7.1093122948573534E-002   8.4619603324372156E-002   0.0000000000000000     
   7.3611345846397405E-002   9.0743573528630481E-002   0.0000000000000000     
   7.6032214404367762E-002   9.7024658874882305E-002   0.0000000000000000     
   7.8355728622484605E-002  0.10346285936312770        0.0000000000000000     
   8.0581888500747961E-002  0.11005817499336659        0.0000000000000000     
   6.5397116086381352E-002   8.3878395767010422E-002   0.0000000000000000     
   6.7746646075313388E-002   9.0030277727914179E-002   0.0000000000000000     
   7.0004830921035696E-002   9.6337707296279357E-002   0.0000000000000000     
   7.2171670623548317E-002  0.10280068447210587        0.0000000000000000     
   7.4247165182851238E-002  0.10941920925539386        0.0000000000000000     
   5.9892290442127155E-002   8.3187875344527346E-002   0.0000000000000000     
   6.2074410013133775E-002   8.9364694278963264E-002   0.0000000000000000     
   6.4171319491254569E-002   9.5696426811749696E-002   0.0000000000000000     
   6.6183018876489502E-002  0.10218307294288669        0.0000000000000000     
   6.8109508168838595E-002  0.10882463267237417        0.0000000000000000     
   5.4578646015810944E-002   8.2548042056922954E-002   0.0000000000000000     
   5.6594637659858629E-002   8.8746823181777720E-002   0.0000000000000000     
   5.8531680115024368E-002   9.5100817421293407E-002   0.0000000000000000     
   6.0389773381308152E-002  0.10161002477547001        0.0000000000000000     
   6.2168917458709998E-002  0.10827444524430758        0.0000000000000000     
   8.7113678122528737E-002  0.11074152988629238        0.0000000000000000     
   8.9394562998947574E-002  0.11745774134436383        0.0000000000000000     
   9.1583484812560637E-002  0.12430289497595065        0.0000000000000000     
   9.3680443563367938E-002  0.13127699078105279        0.0000000000000000     
   9.5685439251369464E-002  0.13838002875967031        0.0000000000000000     
   8.0581888500747961E-002  0.11005817499336659        0.0000000000000000     
   8.2720094332579958E-002  0.11679884024506659        0.0000000000000000     
   8.4779746411402748E-002  0.12367308959769530        0.0000000000000000     
   8.6760844737216361E-002  0.13068092305125270        0.0000000000000000     
   8.8663389310020740E-002  0.13782234060573878        0.0000000000000000     
   7.4247165182851238E-002  0.10941920925539386        0.0000000000000000     
   7.6242607940684812E-002  0.11618385167514840        0.0000000000000000     
   7.8169292238789420E-002  0.12308518176037472        0.0000000000000000     
   8.0027218077165022E-002  0.13012319951107285        0.0000000000000000     
   8.1816385455811630E-002  0.13729790492724273        0.0000000000000000     
   6.8109508168838595E-002  0.10882463267237417        0.0000000000000000     
   6.9962103823262192E-002  0.11561277563460928        0.0000000000000000     
   7.1752122294720652E-002  0.12253917146398896        0.0000000000000000     
   7.3479563583213975E-002  0.12960382016051325        0.0000000000000000     
   7.5144427688742174E-002  0.13680672172418212        0.0000000000000000     
   6.2168917458709998E-002  0.10827444524430758        0.0000000000000000     
   6.3878581980312030E-002  0.11508561212344919        0.0000000000000000     
   6.5528236579196444E-002  0.12203505870853795        0.0000000000000000     
   6.7117881255363221E-002  0.12912278499957386        0.0000000000000000     
   6.8647516008812345E-002  0.13634879099655697        0.0000000000000000     
   9.5685439251369464E-002  0.13838002875967031        0.0000000000000000     
   9.7609066237083764E-002  0.14561040253570162        0.0000000000000000     
   9.9461918881029329E-002  0.15296650573304529        0.0000000000000000     
  0.10124399718320622       0.16044833835170125        0.0000000000000000     
  0.10295530114361438       0.16805590039166957        0.0000000000000000     
   8.8663389310020740E-002  0.13782234060573878        0.0000000000000000     
   9.0478249502488201E-002  0.14508609104423659        0.0000000000000000     
   9.2196294687291014E-002  0.15246092314982904        0.0000000000000000     
   9.3817524864429194E-002  0.15994683692251621        0.0000000000000000     
   9.5341940033902728E-002  0.16754383236229808        0.0000000000000000     
   8.1816385455811630E-002  0.13729790492724273        0.0000000000000000     
   8.3516675008481644E-002  0.14459213903921234        0.0000000000000000     
   8.5107967368927409E-002  0.15198874287730968        0.0000000000000000     
   8.6590262537148951E-002  0.15948771644153475        0.0000000000000000     
   8.7963560513146286E-002  0.16708905973188748        0.0000000000000000     
   7.5144427688742174E-002  0.13680672172418212        0.0000000000000000     
   7.6724342755064068E-002  0.14412854652062898        0.0000000000000000     
   7.8196936925938529E-002  0.15154996491548720        0.0000000000000000     
   7.9562210201365544E-002  0.15907097690875688        0.0000000000000000     
   8.0820162581345070E-002  0.16669158250043786        0.0000000000000000     
   6.8647516008812345E-002  0.13634879099655697        0.0000000000000000     
   7.0101252742235498E-002  0.14369531348848649        0.0000000000000000     
   7.1463203358324331E-002  0.15114458926436170        0.0000000000000000     
   7.2733367857078873E-002  0.15869661832418255        0.0000000000000000     
   7.3911746238499082E-002  0.16635140066794912        0.0000000000000000     
   0.0000000000000000        0.0000000000000000        0.0000000000000000     
   2.8800726448244035E-003   1.7448521891715240E-003   0.0000000000000000     
   5.8726638624052819E-003   3.8646564040792069E-003   0.0000000000000000     
   8.9777736527426339E-003   6.3594126447230484E-003   0.0000000000000000     
   1.2195402015836460E-002   9.2291209111030510E-003   0.0000000000000000     
   0.0000000000000000        0.0000000000000000        0.0000000000000000     
   2.6103245421118114E-003   1.5889381561924988E-003   0.0000000000000000     
   5.2897445282624094E-003   3.5567052423967249E-003   0.0000000000000000     
   8.0382599584517943E-003   5.9033012586126778E-003   0.0000000000000000     
   1.0855870832679967E-002   8.6287262048403580E-003   0.0000000000000000     
   0.0000000000000000        0.0000000000000000        0.0000000000000000     
   2.3401210315988005E-003   1.4589599215593507E-003   0.0000000000000000     
   4.7202228632761325E-003   3.2997976158904208E-003   0.0000000000000000     
   7.1403054950319950E-003   5.5225130829932110E-003   0.0000000000000000     
   9.6003689268663889E-003   8.1271063228677189E-003   0.0000000000000000     
   0.0000000000000000        0.0000000000000000        0.0000000000000000     
   2.0694621132853713E-003   1.3549174852720797E-003   0.0000000000000000     
   4.1640988674464486E-003   3.0939335245602950E-003   0.0000000000000000     
   6.2839102624832324E-003   5.2170481178646453E-003   0.0000000000000000     
   8.4288962983957213E-003   7.7242612651851313E-003   0.0000000000000000     
   0.0000000000000000        0.0000000000000000        0.0000000000000000     
   1.7983477871715238E-003   1.2768108473306854E-003   0.0000000000000000     
   3.6213725407733604E-003   2.9391129684063471E-003   0.0000000000000000     
   5.4690742608055091E-003   4.9869063632269842E-003   0.0000000000000000     
   7.3414529472679707E-003   7.4201910317925977E-003   0.0000000000000000     
   1.2195402015836460E-002   9.2291209111030510E-003   0.0000000000000000     
   1.5427815368108069E-002   1.2371699154371389E-002   0.0000000000000000     
   1.8577280125978771E-002   1.5685065325680245E-002   0.0000000000000000     
   2.1643796289448559E-002   1.9169219425029617E-002   0.0000000000000000     
   2.4627363858517441E-002   2.2824161452419511E-002   0.0000000000000000     
   1.0855870832679967E-002   8.6287262048403580E-003   0.0000000000000000     
   1.3689219252774542E-002   1.1650723811931460E-002   0.0000000000000000     
   1.6484947320563128E-002   1.4887037810737669E-002   0.0000000000000000     
   1.9243055036045731E-002   1.8337668201258997E-002   0.0000000000000000     
   2.1963542399222349E-002   2.2002614983495428E-002   0.0000000000000000     
   9.6003689268663889E-003   8.1271063228677189E-003   0.0000000000000000     
   1.2076860375506581E-002   1.1046205959780132E-002   0.0000000000000000     
   1.4546227057679847E-002   1.4212440617996631E-002   0.0000000000000000     
   1.7008468973386183E-002   1.7625810297517218E-002   0.0000000000000000     
   1.9463586122625592E-002   2.1286314998341892E-002   0.0000000000000000     
   8.4288962983957213E-003   7.7242612651851313E-003   0.0000000000000000     
   1.0590738736304194E-002   1.0558145597917410E-002   0.0000000000000000     
   1.2761119337328925E-002   1.3661273747457126E-002   0.0000000000000000     
   1.4940038101469917E-002   1.7033645713804293E-002   0.0000000000000000     
   1.7127495028727166E-002   2.0675261496958901E-002   0.0000000000000000     
   7.3414529472679707E-003   7.4201910317925977E-003   0.0000000000000000     
   9.2308543351673766E-003   1.0186542726343289E-002   0.0000000000000000     
   1.1129624159510364E-002   1.3233537199119160E-002   0.0000000000000000     
   1.3037762420296929E-002   1.6561174450120213E-002   0.0000000000000000     
   1.4955269117527075E-002   2.0169454479346448E-002   0.0000000000000000     
   2.4627363858517441E-002   2.2824161452419511E-002   0.0000000000000000     
   2.7532115669244985E-002   2.6672708311972441E-002   0.0000000000000000     