 <VTKFile type="UnstructuredGrid"  version="0.1"   >
 <UnstructuredGrid>
 <Piece  NumberOfPoints="          1600 "  NumberOfCells="         1024 ">
 <Points>
 <DataArray  type="Float64" NumberOfComponents="3"  format="ascii" >
   0.0000000000000000        0.0000000000000000        0.0000000000000000     
   3.1250000000000000E-002   0.0000000000000000        0.0000000000000000     
   6.2500000000000000E-002   0.0000000000000000        0.0000000000000000     
   9.3750000000000000E-002   0.0000000000000000        0.0000000000000000     
  0.12500000000000000        0.0000000000000000        0.0000000000000000     
   0.0000000000000000        3.1250000000000000E-002   0.0000000000000000     
   3.1250000000000000E-002   3.1250000000000000E-002   0.0000000000000000     
   6.2500000000000000E-002   3.1250000000000000E-002   0.0000000000000000     
   9.3750000000000000E-002   3.1250000000000000E-002   0.0000000000000000     
  0.12500000000000000        3.1250000000000000E-002   0.0000000000000000     
   0.0000000000000000        6.2500000000000000E-002   0.0000000000000000     
   3.1250000000000000E-002   6.2500000000000000E-002   0.0000000000000000     
   6.2500000000000000E-002   6.2500000000000000E-002   0.0000000000000000     
   9.3750000000000000E-002   6.2500000000000000E-002   0.0000000000000000     
  0.12500000000000000        6.2500000000000000E-002   0.0000000000000000     
   0.0000000000000000        9.3750000000000000E-002   0.0000000000000000     
   3.1250000000000000E-002   9.3750000000000000E-002   0.0000000000000000     
   6.2500000000000000E-002   9.3750000000000000E-002   0.0000000000000000     
   9.3750000000000000E-002   9.3750000000000000E-002   0.0000000000000000     
  0.12500000000000000        9.3750000000000000E-002   0.0000000000000000     
   0.0000000000000000       0.12500000000000000        0.0000000000000000     
   3.1250000000000000E-002  0.12500000000000000        0.0000000000000000     
   6.2500000000000000E-002  0.12500000000000000        0.0000000000000000     
   9.3750000000000000E-002  0.12500000000000000        0.0000000000000000     
  0.12500000000000000       0.12500000000000000        0.0000000000000000     
  0.12500000000000000        0.0000000000000000        0.0000000000000000     
  0.15625000000000000        0.0000000000000000        0.0000000000000000     
  0.18750000000000000        0.0000000000000000        0.0000000000000000     
  0.21875000000000000        0.0000000000000000        0.0000000000000000     
  0.25000000000000000        0.0000000000000000        0.0000000000000000     
  0.12500000000000000        3.1250000000000000E-002   0.0000000000000000     
  0.15625000000000000        3.1250000000000000E-002   0.0000000000000000     
  0.18750000000000000        3.1250000000000000E-002   0.0000000000000000     
  0.21875000000000000        3.1250000000000000E-002   0.0000000000000000     
  0.25000000000000000        3.1250000000000000E-002   0.0000000000000000     
  0.12500000000000000        6.2500000000000000E-002   0.0000000000000000     
  0.15625000000000000        6.2500000000000000E-002   0.0000000000000000     
  0.18750000000000000        6.2500000000000000E-002   0.0000000000000000     
  0.21875000000000000        6.2500000000000000E-002   0.0000000000000000     
  0.25000000000000000        6.2500000000000000E-002   0.0000000000000000     
  0.12500000000000000        9.3750000000000000E-002   0.0000000000000000     
  0.15625000000000000        9.3750000000000000E-002   0.0000000000000000     
  0.18750000000000000        9.3750000000000000E-002   0.0000000000000000     
  0.21875000000000000        9.3750000000000000E-002   0.0000000000000000     
  0.25000000000000000        9.3750000000000000E-002   0.0000000000000000     
  0.12500000000000000       0.12500000000000000        0.0000000000000000     
  0.15625000000000000       0.12500000000000000        0.0000000000000000     
  0.18750000000000000       0.12500000000000000        0.0000000000000000     
  0.21875000000000000       0.12500000000000000        0.0000000000000000     
  0.25000000000000000       0.12500000000000000        0.0000000000000000     
  0.25000000000000000        0.0000000000000000        0.0000000000000000     
  0.28125000000000000        0.0000000000000000        0.0000000000000000     
  0.31250000000000000        0.0000000000000000        0.0000000000000000     
  0.34375000000000000        0.0000000000000000        0.0000000000000000     
  0.37500000000000000        0.0000000000000000        0.0000000000000000     
  0.25000000000000000        3.1250000000000000E-002   0.0000000000000000     
  0.28125000000000000        3.1250000000000000E-002   0.0000000000000000     
  0.31250000000000000        3.1250000000000000E-002   0.0000000000000000     
  0.34375000000000000        3.1250000000000000E-002   0.0000000000000000     
  0.37500000000000000        3.1250000000000000E-002   0.0000000000000000     
  0.25000000000000000        6.2500000000000000E-002   0.0000000000000000     
  0.28125000000000000        6.2500000000000000E-002   0.0000000000000000     
  0.31250000000000000        6.2500000000000000E-002   0.0000000000000000     
  0.34375000000000000        6.2500000000000000E-002   0.0000000000000000     
  0.37500000000000000        6.2500000000000000E-002   0.0000000000000000     
  0.25000000000000000        9.3750000000000000E-002   0.0000000000000000     
  0.28125000000000000        9.3750000000000000E-002   0.0000000000000000     
  0.31250000000000000        9.3750000000000000E-002   0.0000000000000000     
  0.34375000000000000        9.3750000000000000E-002   0.0000000000000000     
  0.37500000000000000        9.3750000000000000E-002   0.0000000000000000     
  0.25000000000000000       0.12500000000000000        0.0000000000000000     
  0.28125000000000000       0.12500000000000000        0.0000000000000000     
  0.31250000000000000       0.12500000000000000        0.0000000000000000     
  0.34375000000000000       0.12500000000000000        0.0000000000000000     
  0.37500000000000000       0.12500000000000000        0.0000000000000000     
  0.37500000000000000        0.0000000000000000        0.0000000000000000     
  0.40625000000000000        0.0000000000000000        0.0000000000000000     
  0.43750000000000000        0.0000000000000000        0.0000000000000000     
  0.46875000000000000        0.0000000000000000        0.0000000000000000     
  0.50000000000000000        0.0000000000000000        0.0000000000000000     
  0.37500000000000000        3.1250000000000000E-002   0.0000000000000000     
  0.40625000000000000        3.1250000000000000E-002   0.0000000000000000     
  0.43750000000000000        3.1250000000000000E-002   0.0000000000000000     
  0.46875000000000000        3.1250000000000000E-002   0.0000000000000000     
  0.50000000000000000        3.1250000000000000E-002   0.0000000000000000     
  0.37500000000000000        6.2500000000000000E-002   0.0000000000000000     
  0.40625000000000000        6.2500000000000000E-002   0.0000000000000000     
  0.43750000000000000        6.2500000000000000E-002   0.0000000000000000     
  0.46875000000000000        6.2500000000000000E-002   0.0000000000000000     
  0.50000000000000000        6.2500000000000000E-002   0.0000000000000000     
  0.37500000000000000        9.3750000000000000E-002   0.0000000000000000     
  0.40625000000000000        9.3750000000000000E-002   0.0000000000000000     
  0.43750000000000000        9.3750000000000000E-002   0.0000000000000000     
  0.46875000000000000        9.3750000000000000E-002   0.0000000000000000     
  0.50000000000000000        9.3750000000000000E-002   0.0000000000000000     
  0.37500000000000000       0.12500000000000000        0.0000000000000000     
  0.40625000000000000       0.12500000000000000        0.0000000000000000     
  0.43750000000000000       0.12500000000000000        0.0000000000000000     
  0.46875000000000000       0.12500000000000000        0.0000000000000000     
  0.50000000000000000       0.12500000000000000        0.0000000000000000     
  0.50000000000000000        0.0000000000000000        0.0000000000000000     
  0.53125000000000000        0.0000000000000000        0.0000000000000000     
  0.56250000000000000        0.0000000000000000        0.0000000000000000     
  0.59375000000000000        0.0000000000000000        0.0000000000000000     
  0.62500000000000000        0.0000000000000000        0.0000000000000000     
  0.50000000000000000        3.1250000000000000E-002   0.0000000000000000     
  0.53125000000000000        3.1250000000000000E-002   0.0000000000000000     
  0.56250000000000000        3.1250000000000000E-002   0.0000000000000000     
  0.59375000000000000        3.1250000000000000E-002   0.0000000000000000     
  0.62500000000000000        3.1250000000000000E-002   0.0000000000000000     
  0.50000000000000000        6.2500000000000000E-002   0.0000000000000000     
  0.53125000000000000        6.2500000000000000E-002   0.0000000000000000     
  0.56250000000000000        6.2500000000000000E-002   0.0000000000000000     
  0.59375000000000000        6.2500000000000000E-002   0.0000000000000000     
  0.62500000000000000        6.2500000000000000E-002   0.0000000000000000     
  0.50000000000000000        9.3750000000000000E-002   0.0000000000000000     
  0.53125000000000000        9.3750000000000000E-002   0.0000000000000000     
  0.56250000000000000        9.3750000000000000E-002   0.0000000000000000     
  0.59375000000000000        9.3750000000000000E-002   0.0000000000000000     
  0.62500000000000000        9.3750000000000000E-002   0.0000000000000000     
  0.50000000000000000       0.12500000000000000        0.0000000000000000     
  0.53125000000000000       0.12500000000000000        0.0000000000000000     
  0.56250000000000000       0.12500000000000000        0.0000000000000000     
[...]
 <PointData>
 <DataArray  type="Float64" Name="disp" NumberOfComponents="3" format="ascii">
   0.0000000000000000        0.0000000000000000        0.0000000000000000     
   6.0961948018992936E-003   3.7903634217250947E-003   0.0000000000000000     
   1.1666471099050614E-002   7.3234545874694135E-003   0.0000000000000000     
   1.6710828891453963E-002   1.0599273497232959E-002   0.0000000000000000     
   2.1229268179109338E-002   1.3617820151015727E-002   0.0000000000000000     
   0.0000000000000000        0.0000000000000000        0.0000000000000000     
   4.8914189158080403E-003   3.0218350899234190E-003   0.0000000000000000     
   9.5742147165952703E-003   6.0598196187963502E-003   0.0000000000000000     
   1.4048387402361695E-002   9.1139535866187928E-003   0.0000000000000000     
   1.8313936973107306E-002   1.2184236993390746E-002   0.0000000000000000     
   0.0000000000000000        0.0000000000000000        0.0000000000000000     
   3.9538272819508464E-003   2.4246519696262858E-003   0.0000000000000000     
   7.9112005088719413E-003   5.0619720241458941E-003   0.0000000000000000     
   1.1872119680763286E-002   7.9119601635588253E-003   0.0000000000000000     
   1.5836584797624880E-002   1.0974616387865076E-002   0.0000000000000000     
   0.0000000000000000        0.0000000000000000        0.0000000000000000     
   3.2834199003277144E-003   1.9988140608336942E-003   0.0000000000000000     
   6.6774284758806274E-003   4.3299118035180452E-003   0.0000000000000000     
   1.0182025726658741E-002   6.9932932280530533E-003   0.0000000000000000     
   1.3797211652662050E-002   9.9889583344387155E-003   0.0000000000000000     
   0.0000000000000000        0.0000000000000000        0.0000000000000000     
   2.8801967709386426E-003   1.7443213635456446E-003   0.0000000000000000     
   5.8728986176213270E-003   3.8636389569128042E-003   0.0000000000000000     
   8.9781055400480533E-003   6.3579527801014774E-003   0.0000000000000000     
   1.2195817538218825E-002   9.2272628331116647E-003   0.0000000000000000     
   2.1229268179109338E-002   1.3617820151015727E-002   0.0000000000000000     
   2.5434939304990620E-002   1.6610040161619113E-002   0.0000000000000000     
   2.9540992612071708E-002   1.9806879141844508E-002   0.0000000000000000     
   3.3547428100352578E-002   2.3208337091691910E-002   0.0000000000000000     
   3.7454245769833257E-002   2.6814414011161317E-002   0.0000000000000000     
   1.8313936973107306E-002   1.2184236993390746E-002   0.0000000000000000     
   2.2409199768575219E-002   1.5339135957706416E-002   0.0000000000000000     
   2.6372512128508545E-002   1.8647116598160006E-002   0.0000000000000000     
   3.0203874052907267E-002   2.2108178914751513E-002   0.0000000000000000     
   3.3903285541771411E-002   2.5722322907480936E-002   0.0000000000000000     
   1.5836584797624880E-002   1.0974616387865076E-002   0.0000000000000000     
   1.9732842229395947E-002   1.4208740575116337E-002   0.0000000000000000     
   2.3489138346015726E-002   1.7573132603364294E-002   0.0000000000000000     
   2.7105473147484214E-002   2.1067792472608943E-002   0.0000000000000000     
   3.0581846633801407E-002   2.4692720182850285E-002   0.0000000000000000     
   1.3797211652662050E-002   9.9889583344387155E-003   0.0000000000000000     
   1.7405866687452809E-002   1.3218854013848876E-002   0.0000000000000000     
   2.0890871264593266E-002   1.6584927157457366E-002   0.0000000000000000     
   2.4252225384083406E-002   2.0087177765264193E-002   0.0000000000000000     
   2.7489929045923255E-002   2.3725605837269358E-002   0.0000000000000000     
   1.2195817538218825E-002   9.2272628331116647E-003   0.0000000000000000     
   1.5428273142745801E-002   1.2369476273904029E-002   0.0000000000000000     
   1.8577710884241146E-002   1.5682500260439235E-002   0.0000000000000000     
   2.1644130762704866E-002   1.9166334792717274E-002   0.0000000000000000     
   2.4627532778136955E-002   2.2820979870738160E-002   0.0000000000000000     
   3.7454245769833257E-002   2.6814414011161317E-002   0.0000000000000000     
   4.1265521477790071E-002   3.0620158796231544E-002   0.0000000000000000     
   4.4985331081499366E-002   3.4620620342881395E-002   0.0000000000000000     
   4.8613674580961150E-002   3.8815798651110872E-002   0.0000000000000000     
   5.2150551976175408E-002   4.3205693720919980E-002   0.0000000000000000     
   3.3903285541771411E-002   2.5722322907480936E-002   0.0000000000000000     
   3.7493871446263836E-002   2.9518565299516620E-002   0.0000000000000000     
   4.0998756617547455E-002   3.3525922814026908E-002   0.0000000000000000     
   4.4417941055622252E-002   3.7744395451011790E-002   0.0000000000000000     
   4.7751424760488242E-002   4.2173983210471278E-002   0.0000000000000000     
   3.0581846633801407E-002   2.4692720182850285E-002   0.0000000000000000     
   3.3947758395306483E-002   2.8492906880136195E-002   0.0000000000000000     
   3.7232708022338613E-002   3.2513343710514543E-002   0.0000000000000000     
   4.0436695514897800E-002   3.6754030673985340E-002   0.0000000000000000     
   4.3559720872984049E-002   4.1214967770548568E-002   0.0000000000000000     
   2.7489929045923255E-002   2.3725605837269358E-002   0.0000000000000000     
   3.0627182324917995E-002   2.7543183538090259E-002   0.0000000000000000     
   3.3687185295872835E-002   3.1582883032344314E-002   0.0000000000000000     
   3.6669937958787771E-002   3.5844704320031506E-002   0.0000000000000000     
   3.9575440313662807E-002   4.0328647401151843E-002   0.0000000000000000     
   2.4627532778136955E-002   2.2820979870738160E-002   0.0000000000000000     
   2.7532143235098384E-002   2.6669395273378825E-002   0.0000000000000000     
   3.0362188438150126E-002   3.0734540779516199E-002   0.0000000000000000     
   3.3117668387292180E-002   3.5016416389150304E-002   0.0000000000000000     
   3.5798583082524545E-002   3.9515022102281125E-002   0.0000000000000000     
   5.2150551976175408E-002   4.3205693720919980E-002   0.0000000000000000     
   5.5595477500896377E-002   4.7796798004692220E-002   0.0000000000000000     
   5.8947965388878289E-002   5.2595603954811110E-002   0.0000000000000000     
   6.2208015640121128E-002   5.7602111571276648E-002   0.0000000000000000     
   6.5375628254624910E-002   6.2816320854088836E-002   0.0000000000000000     
   4.7751424760488242E-002   4.2173983210471278E-002   0.0000000000000000     
   5.0995558381374033E-002   4.6808773034800605E-002   0.0000000000000000     
   5.4146692567508245E-002   5.1642851866395008E-002   0.0000000000000000     
   5.7204827318890872E-002   5.6676219705254487E-002   0.0000000000000000     
   6.0169962635521920E-002   6.1908876551379041E-002   0.0000000000000000     
   4.3559720872984049E-002   4.1214967770548568E-002   0.0000000000000000     
   4.6597127565977663E-002   4.5883578513595924E-002   0.0000000000000000     
   4.9544259063258954E-002   5.0747286416519106E-002   0.0000000000000000     
   5.2401115364827937E-002   5.5806091479318108E-002   0.0000000000000000     
   5.5167696470684598E-002   6.1059993701992929E-002   0.0000000000000000     
   3.9575440313662807E-002   4.0328647401151843E-002   0.0000000000000000     
   4.2400185054707260E-002   4.5021214441078206E-002   0.0000000000000000     
   4.5140664876130436E-002   4.9908907605183427E-002   0.0000000000000000     
   4.7796879777932316E-002   5.4991726893467527E-002   0.0000000000000000     
   5.0368829760112928E-002   6.0269672305930500E-002   0.0000000000000000     
   3.5798583082524545E-002   3.9515022102281125E-002   0.0000000000000000     
   3.8404730847562837E-002   4.4221680817247415E-002   0.0000000000000000     
   4.0935910006122650E-002   4.9127715432387961E-002   0.0000000000000000     
   4.3392120558204024E-002   5.4233125947702736E-002   0.0000000000000000     
   4.5773362503806918E-002   5.9537912363191767E-002   0.0000000000000000     
   6.5375628254624910E-002   6.2816320854088836E-002   0.0000000000000000     
   6.8448963727621923E-002   6.8220751092569643E-002   0.0000000000000000     
   7.1426182554344492E-002   7.3797921576041037E-002   0.0000000000000000     
   7.4307284734792589E-002   7.9547832304503033E-002   0.0000000000000000     
   7.7092270268966229E-002   8.5470483277955603E-002   0.0000000000000000     
   6.0169962635521920E-002   6.1908876551379041E-002   0.0000000000000000     
   6.3044164146975140E-002   6.7329661553758663E-002   0.0000000000000000     
   6.5829497482824281E-002   7.2927413861383322E-002   0.0000000000000000     
   6.8525962643069330E-002   7.8702133474253033E-002   0.0000000000000000     
   7.1133559627710286E-002   8.4653820392367782E-002   0.0000000000000000     
   5.5167696470684598E-002   6.1059993701992929E-002   0.0000000000000000     
   5.7847893560506319E-002   6.6501122414593397E-002   0.0000000000000000     
   6.0445597813970485E-002   7.2121606947169375E-002   0.0000000000000000     
   6.2960809231077081E-002   7.7921447299720809E-002   0.0000000000000000     
   6.5393527811826113E-002   8.3900643472247752E-002   0.0000000000000000     
   5.0368829760112928E-002   6.0269672305930500E-002   0.0000000000000000     
   5.2860151968215460E-002   6.5735133675073887E-002   0.0000000000000000     
   5.5274483547783103E-002   7.1380500833399155E-002   0.0000000000000000     
   5.7611824498815849E-002   7.7205773780906373E-002   0.0000000000000000     
   5.9872174821313698E-002   8.3210952517595499E-002   0.0000000000000000     
   4.5773362503806918E-002   5.9537912363191767E-002   0.0000000000000000     
   4.8080939370102549E-002   6.5031695335200063E-002   0.0000000000000000     
   5.0316154684262121E-002   7.0704095520072716E-002   0.0000000000000000     
   5.2479008446285627E-002   7.6555112917809684E-002   0.0000000000000000     
   5.4569500656173060E-002   8.2584747528411023E-002   0.0000000000000000     
   7.7092270268966229E-002   8.5470483277955603E-002   0.0000000000000000     
   7.9780314729427343E-002   9.1561886230819969E-002   0.0000000000000000     
   8.2370593688737920E-002   9.7818052897517327E-002   0.0000000000000000     
   8.4863107146897918E-002  0.10423898327804765        0.0000000000000000     
   8.7257855103907350E-002  0.11082467737241097        0.0000000000000000     
   7.1133559627710286E-002   8.4653820392367782E-002   0.0000000000000000     
   7.3650429755386077E-002   9.0774689470040790E-002   0.0000000000000000     
   7.6074714344735631E-002   9.7056955561585279E-002   0.0000000000000000     
   7.8406413395758920E-002  0.10350061866700119        0.0000000000000000     
   8.0645526908455986E-002  0.11010567878628862        0.0000000000000000     
   6.5393527811826113E-002   8.3900643472247752E-002   0.0000000000000000     
   6.7741412949947205E-002   9.0049151845736780E-002   0.0000000000000000     
   7.0002124039169999E-002   9.6356928801174468E-002   0.0000000000000000     
   7.2175661079494496E-002  0.10282397433856084        0.0000000000000000     
   7.4262024070920696E-002  0.10945028845789594        0.0000000000000000     
   5.9872174821313698E-002   8.3210952517595499E-002   0.0000000000000000     
   6.2053264313110743E-002   8.9385273357907899E-002   0.0000000000000000     
   6.4152822772041054E-002   9.5717972616284924E-002   0.0000000000000000     
   6.6170850198104619E-002  0.10220905029272663        0.0000000000000000     
   6.8107346591301465E-002  0.10885850638723293        0.0000000000000000     
   5.4569500656173060E-002   8.2584747528411023E-002   0.0000000000000000     
   5.6585983844876696E-002   8.8783054006554160E-002   0.0000000000000000     
   5.8526810543348774E-002   9.5140087006916646E-002   0.0000000000000000     
   6.0391980751589303E-002  0.10165584652949847        0.0000000000000000     
   6.2181494469598281E-002  0.10833033257429962        0.0000000000000000     
   8.7257855103907350E-002  0.11082467737241097        0.0000000000000000     
   8.9561787137339699E-002  0.11755632215833081        0.0000000000000000     
   9.1781852824768487E-002  0.12441510461353074        0.0000000000000000     
   9.3918052166193686E-002  0.13140102473801074        0.0000000000000000     
   9.5970385161615324E-002  0.13851408253177083        0.0000000000000000     
   8.0645526908455986E-002  0.11010567878628862        0.0000000000000000     
   8.2796838929784664E-002  0.11685644363974403        0.0000000000000000     
   8.4865133506702842E-002  0.12373722094766404        0.0000000000000000     
   8.6850410639210521E-002  0.13074801071004860        0.0000000000000000     
   8.8752670327307659E-002  0.13788881292689772        0.0000000000000000     
   7.4262024070920696E-002  0.10945028845789594        0.0000000000000000     
   7.6264562319932380E-002  0.11622243023041341        0.0000000000000000     
   7.8186625133013374E-002  0.12312695872734698        0.0000000000000000     
   8.0028212510163621E-002  0.13016387394869666        0.0000000000000000     
   8.1789324451383191E-002  0.13733317589446239        0.0000000000000000     
   6.8107346591301465E-002  0.10885850638723293        0.0000000000000000     
   6.9964957307782835E-002  0.11565428193033891        0.0000000000000000     
   7.1746327703700041E-002  0.12258431795257957        0.0000000000000000     
   7.3451457779053042E-002  0.12964861445395490        0.0000000000000000     
   7.5080347533841879E-002  0.13684717143446490        0.0000000000000000     
   6.2181494469598281E-002  0.10833033257429962        0.0000000000000000     
   6.3898023893336042E-002  0.11515199873952056        0.0000000000000000     
   6.5544241218762858E-002  0.12210929862336183        0.0000000000000000     
   6.7120146445878770E-002  0.12920223222582339        0.0000000000000000     
   6.8625739574683736E-002  0.13643079954690523        0.0000000000000000     
   9.5970385161615324E-002  0.13851408253177083        0.0000000000000000     
   9.7966358172289658E-002  0.14580655791684638        0.0000000000000000     
   9.9933477559472919E-002  0.15333073081527274        0.0000000000000000     
  0.10187174332316512       0.16108660122704993        0.0000000000000000     
  0.10378115546336628       0.16907416915217799        0.0000000000000000     
   8.8752670327307659E-002  0.13788881292689772        0.0000000000000000     
   9.0575921499027309E-002  0.14516770937994333        0.0000000000000000     
   9.2324173082402400E-002  0.15259278185091729        0.0000000000000000     
   9.3997425077432931E-002  0.16016403033981960        0.0000000000000000     
   9.5595677484118916E-002  0.16788145484665029        0.0000000000000000     
   8.1789324451383191E-002  0.13733317589446239        0.0000000000000000     
   8.3459052836539940E-002  0.14461687483204039        0.0000000000000000     
   8.5026489545501793E-002  0.15199698102882658        0.0000000000000000     
   8.6491634578268722E-002  0.15947349448482109        0.0000000000000000     
   8.7854487934840783E-002  0.16704641520002383        0.0000000000000000     
   7.5080347533841879E-002  0.13684717143446490        0.0000000000000000     
   7.6615752184827565E-002  0.14415405427313749        0.0000000000000000     
   7.8040426948771113E-002  0.15154332834900069        0.0000000000000000     
   7.9354371825672565E-002  0.15901499366205438        0.0000000000000000     
   8.0557586815531892E-002  0.16656905021229856        0.0000000000000000     
   6.8625739574683736E-002  0.13643079954690523        0.0000000000000000     
   7.0046019543890170E-002  0.14377924770323480        0.0000000000000000     
   7.1365985292210388E-002  0.15123182381143954        0.0000000000000000     
   7.2585636819644403E-002  0.15878852787151942        0.0000000000000000     
   7.3704974126192230E-002  0.16644935988347448        0.0000000000000000     
   0.0000000000000000        0.0000000000000000        0.0000000000000000     
   2.8801967709386426E-003   1.7443213635456446E-003   0.0000000000000000     
   5.8728986176213270E-003   3.8636389569128042E-003   0.0000000000000000     
   8.9781055400480533E-003   6.3579527801014774E-003   0.0000000000000000     
   1.2195817538218825E-002   9.2272628331116647E-003   0.0000000000000000     
   0.0000000000000000        0.0000000000000000        0.0000000000000000     
   2.6103432575413730E-003   1.5884813054064990E-003   0.0000000000000000     
   5.2897082131385855E-003   3.5558119302226371E-003   0.0000000000000000     
   8.0380948667916376E-003   5.9019918744484135E-003   0.0000000000000000     
   1.0855503218500529E-002   8.6270211380838294E-003   0.0000000000000000     
   0.0000000000000000        0.0000000000000000        0.0000000000000000     
   2.3400447238936498E-003   1.4586013140606192E-003   0.0000000000000000     
   4.7199545414769511E-003   3.2990891693400110E-003   0.0000000000000000     
   7.1397294527499010E-003   5.5214635658381757E-003   0.0000000000000000     
   9.5993694577125033E-003   8.1257245035551134E-003   0.0000000000000000     
   0.0000000000000000        0.0000000000000000        0.0000000000000000     
   2.0693011699954729E-003   1.3546813895080052E-003   0.0000000000000000     
   4.1636376026364212E-003   3.0934706742649265E-003   0.0000000000000000     
   6.2830092979228461E-003   5.2163678542707639E-003   0.0000000000000000     
   8.4274162558547454E-003   7.7233729295255174E-003   0.0000000000000000     
   0.0000000000000000        0.0000000000000000        0.0000000000000000     
   1.7981125958468412E-003   1.2767215317486570E-003   0.0000000000000000     
   3.6207573966169975E-003   2.9389564449973835E-003   0.0000000000000000     
   5.4679344023104686E-003   4.9867047397461782E-003   0.0000000000000000     
   7.3396436129272557E-003   7.4199664159950414E-003   0.0000000000000000     
   1.2195817538218825E-002   9.2272628331116647E-003   0.0000000000000000     
   1.5428273142745801E-002   1.2369476273904029E-002   0.0000000000000000     
   1.8577710884241146E-002   1.5682500260439235E-002   0.0000000000000000     
   2.1644130762704866E-002   1.9166334792717274E-002   0.0000000000000000     
   2.4627532778136955E-002   2.2820979870738160E-002   0.0000000000000000     
   1.0855503218500529E-002   8.6270211380838294E-003   0.0000000000000000     
   1.3688593801226525E-002   1.1648690357320819E-002   0.0000000000000000     
   1.6484027147930885E-002   1.4884790168351314E-002   0.0000000000000000     
   1.9241803258613611E-002   1.8335320571175321E-002   0.0000000000000000     
   2.1961922133274706E-002   2.2000281565792833E-002   0.0000000000000000     
   9.5993694577125033E-003   8.1257245035551134E-003   0.0000000000000000     
   1.2075360868846585E-002   1.1044579266138256E-002   0.0000000000000000     
   1.4544189998633982E-002   1.4210735137235038E-002   0.0000000000000000     
   1.7005856847074691E-002   1.7624192116845457E-002   0.0000000000000000     
   1.9460361414168716E-002   2.1284950204969517E-002   0.0000000000000000     
   8.4274162558547454E-003   7.7233729295255174E-003   0.0000000000000000     
   1.0588574345605986E-002   1.0557143000356345E-002   0.0000000000000000     
   1.2758199436350440E-002   1.3660335167090405E-002   0.0000000000000000     
   1.4936291528088102E-002   1.7032949429727700E-002   0.0000000000000000     
   1.7122850620818971E-002   2.0674985788268225E-002   0.0000000000000000     
   7.3396436129272557E-003   7.4199664159950414E-003   0.0000000000000000     
   9.2282342315047287E-003   1.0186381559975083E-002   0.0000000000000000     
   1.1126055461080257E-002   1.3233590257917417E-002   0.0000000000000000     
   1.3033107301653843E-002   1.6561592509822035E-002   0.0000000000000000     
   1.4949389753225486E-002   2.0170388315688941E-002   0.0000000000000000     
   2.4627532778136955E-002   2.2820979870738160E-002   0.0000000000000000     
   2.7532143235098384E-002   2.6669395273378825E-002   0.0000000000000000     