 <VTKFile type="UnstructuredGrid"  version="0.1"   >
 <UnstructuredGrid>
 <Piece  NumberOfPoints="          1600 "  NumberOfCells="         1024 ">
 <Points>
 <DataArray  type="Float64" NumberOfComponents="3"  format="ascii" >
   0.0000000000000000        0.0000000000000000        0.0000000000000000     
   3.1250000000000000E-002   0.0000000000000000        0.0000000000000000     
   6.2500000000000000E-002   0.0000000000000000        0.0000000000000000     
   9.3750000000000000E-002   0.0000000000000000        0.0000000000000000     
  0.12500000000000000        0.0000000000000000        0.0000000000000000     
   0.0000000000000000        3.1250000000000000E-002   0.0000000000000000     
   3.1250000000000000E-002   3.1250000000000000E-002   0.0000000000000000     
   6.2500000000000000E-002   3.1250000000000000E-002   0.0000000000000000     
   9.3750000000000000E-002   3.1250000000000000E-002   0.0000000000000000     
  0.12500000000000000        3.1250000000000000E-002   0.0000000000000000     
   0.0000000000000000        6.2500000000000000E-002   0.0000000000000000     
   3.1250000000000000E-002   6.2500000000000000E-002   0.0000000000000000     
   6.2500000000000000E-002   6.2500000000000000E-002   0.0000000000000000     
   9.3750000000000000E-002   6.2500000000000000E-002   0.0000000000000000     
  0.12500000000000000        6.2500000000000000E-002   0.0000000000000000     
   0.0000000000000000        9.3750000000000000E-002   0.0000000000000000     
   3.1250000000000000E-002   9.3750000000000000E-002   0.0000000000000000     
   6.2500000000000000E-002   9.3750000000000000E-002   0.0000000000000000     
   9.3750000000000000E-002   9.3750000000000000E-002   0.0000000000000000     
  0.12500000000000000        9.3750000000000000E-002   0.0000000000000000     
   0.0000000000000000       0.12500000000000000        0.0000000000000000     
   3.1250000000000000E-002  0.12500000000000000        0.0000000000000000     
   6.2500000000000000E-002  0.12500000000000000        0.0000000000000000     
   9.3750000000000000E-002  0.12500000000000000        0.0000000000000000     
  0.12500000000000000       0.12500000000000000        0.0000000000000000     
  0.12500000000000000        0.0000000000000000        0.0000000000000000     
  0.15625000000000000        0.0000000000000000        0.0000000000000000     
  0.18750000000000000        0.0000000000000000        0.0000000000000000     
  0.21875000000000000        0.0000000000000000        0.0000000000000000     
  0.25000000000000000        0.0000000000000000        0.0000000000000000     
  0.12500000000000000        3.1250000000000000E-002   0.0000000000000000     
  0.15625000000000000        3.1250000000000000E-002   0.0000000000000000     
  0.18750000000000000        3.1250000000000000E-002   0.0000000000000000     
  0.21875000000000000        3.1250000000000000E-002   0.0000000000000000     
  0.25000000000000000        3.1250000000000000E-002   0.0000000000000000     
  0.12500000000000000        6.2500000000000000E-002   0.0000000000000000     
  0.15625000000000000        6.2500000000000000E-002   0.0000000000000000     
  0.18750000000000000        6.2500000000000000E-002   0.0000000000000000     
  0.21875000000000000        6.2500000000000000E-002   0.0000000000000000     
  0.25000000000000000        6.2500000000000000E-002   0.0000000000000000     
  0.12500000000000000        9.3750000000000000E-002   0.0000000000000000     
  0.15625000000000000        9.3750000000000000E-002   0.0000000000000000     
  0.18750000000000000        9.3750000000000000E-002   0.0000000000000000     
  0.21875000000000000        9.3750000000000000E-002   0.0000000000000000     
  0.25000000000000000        9.3750000000000000E-002   0.0000000000000000     
  0.12500000000000000       0.12500000000000000        0.0000000000000000     
  0.15625000000000000       0.12500000000000000        0.0000000000000000     
  0.18750000000000000       0.12500000000000000        0.0000000000000000     
  0.21875000000000000       0.12500000000000000        0.0000000000000000     
  0.25000000000000000       0.12500000000000000        0.0000000000000000     
  0.25000000000000000        0.0000000000000000        0.0000000000000000     
  0.28125000000000000        0.0000000000000000        0.0000000000000000     
  0.31250000000000000        0.0000000000000000        0.0000000000000000     
  0.34375000000000000        0.0000000000000000        0.0000000000000000     
  0.37500000000000000        0.0000000000000000        0.0000000000000000     
  0.25000000000000000        3.1250000000000000E-002   0.0000000000000000     
  0.28125000000000000        3.1250000000000000E-002   0.0000000000000000     
  0.31250000000000000        3.1250000000000000E-002   0.0000000000000000     
  0.34375000000000000        3.1250000000000000E-002   0.0000000000000000     
  0.37500000000000000        3.1250000000000000E-002   0.0000000000000000     
  0.25000000000000000        6.2500000000000000E-002   0.0000000000000000     
  0.28125000000000000        6.2500000000000000E-002   0.0000000000000000     
  0.31250000000000000        6.2500000000000000E-002   0.0000000000000000     
  0.34375000000000000        6.2500000000000000E-002   0.0000000000000000     
  0.37500000000000000        6.2500000000000000E-002   0.0000000000000000     
  0.25000000000000000        9.3750000000000000E-002   0.0000000000000000     
  0.28125000000000000        9.3750000000000000E-002   0.0000000000000000     
  0.31250000000000000        9.3750000000000000E-002   0.0000000000000000     
  0.34375000000000000        9.3750000000000000E-002   0.0000000000000000     
  0.37500000000000000        9.3750000000000000E-002   0.0000000000000000     
  0.25000000000000000       0.12500000000000000        0.0000000000000000     
  0.28125000000000000       0.12500000000000000        0.0000000000000000     
  0.31250000000000000       0.12500000000000000        0.0000000000000000     
  0.34375000000000000       0.12500000000000000        0.0000000000000000     
  0.37500000000000000       0.12500000000000000        0.0000000000000000     
  0.37500000000000000        0.0000000000000000        0.0000000000000000     
  0.40625000000000000        0.0000000000000000        0.0000000000000000     
  0.43750000000000000        0.0000000000000000        0.0000000000000000     
  0.46875000000000000        0.0000000000000000        0.0000000000000000     
  0.50000000000000000        0.0000000000000000        0.0000000000000000     
  0.37500000000000000        3.1250000000000000E-002   0.0000000000000000     
  0.40625000000000000        3.1250000000000000E-002   0.0000000000000000     
  0.43750000000000000        3.1250000000000000E-002   0.0000000000000000     
  0.46875000000000000        3.1250000000000000E-002   0.0000000000000000     
  0.50000000000000000        3.1250000000000000E-002   0.0000000000000000     
  0.37500000000000000        6.2500000000000000E-002   0.0000000000000000     
  0.40625000000000000        6.2500000000000000E-002   0.0000000000000000     
  0.43750000000000000        6.2500000000000000E-002   0.0000000000000000     
  0.46875000000000000        6.2500000000000000E-002   0.0000000000000000     
  0.50000000000000000        6.2500000000000000E-002   0.0000000000000000     
  0.37500000000000000        9.3750000000000000E-002   0.0000000000000000     
  0.40625000000000000        9.3750000000000000E-002   0.0000000000000000     
  0.43750000000000000        9.3750000000000000E-002   0.0000000000000000     
  0.46875000000000000        9.3750000000000000E-002   0.0000000000000000     
  0.50000000000000000        9.3750000000000000E-002   0.0000000000000000     
  0.37500000000000000       0.12500000000000000        0.0000000000000000     
  0.40625000000000000       0.12500000000000000        0.0000000000000000     
  0.43750000000000000       0.12500000000000000        0.0000000000000000     
  0.46875000000000000       0.12500000000000000        0.0000000000000000     
  0.50000000000000000       0.12500000000000000        0.0000000000000000     
  0.50000000000000000        0.0000000000000000        0.0000000000000000     
  0.53125000000000000        0.0000000000000000        0.0000000000000000     
  0.56250000000000000        0.0000000000000000        0.0000000000000000     
  0.59375000000000000        0.0000000000000000        0.0000000000000000     
  0.62500000000000000        0.0000000000000000        0.0000000000000000     
  0.50000000000000000        3.1250000000000000E-002   0.0000000000000000     
  0.53125000000000000        3.1250000000000000E-002   0.0000000000000000     
  0.56250000000000000        3.1250000000000000E-002   0.0000000000000000     
  0.59375000000000000        3.1250000000000000E-002   0.0000000000000000     
  0.62500000000000000        3.1250000000000000E-002   0.0000000000000000     
  0.50000000000000000        6.2500000000000000E-002   0.0000000000000000     
  0.53125000000000000        6.2500000000000000E-002   0.0000000000000000     
  0.56250000000000000        6.2500000000000000E-002   0.0000000000000000     
  0.59375000000000000        6.2500000000000000E-002   0.0000000000000000     
  0.62500000000000000        6.2500000000000000E-002   0.0000000000000000     
  0.50000000000000000        9.3750000000000000E-002   0.0000000000000000     
  0.53125000000000000        9.3750000000000000E-002   0.0000000000000000     
  0.56250000000000000        9.3750000000000000E-002   0.0000000000000000     
  0.59375000000000000        9.3750000000000000E-002   0.0000000000000000     
  0.62500000000000000        9.3750000000000000E-002   0.0000000000000000     
  0.50000000000000000       0.12500000000000000        0.0000000000000000     
  0.53125000000000000       0.12500000000000000        0.0000000000000000     
  0.56250000000000000       0.12500000000000000        0.0000000000000000     
[...]
 <PointData>
 <DataArray  type="Float64" Name="disp" NumberOfComponents="3" format="ascii">
   0.0000000000000000        0.0000000000000000        0.0000000000000000     
   6.0944401413566508E-003   3.7871183472768322E-003   0.0000000000000000     
   1.1664081048513327E-002   7.3178575692605377E-003   0.0000000000000000     
   1.6708922721470027E-002   1.0592217665951115E-002   0.0000000000000000     
   2.1228965160226754E-002   1.3610198637348567E-002   0.0000000000000000     
   0.0000000000000000        0.0000000000000000        0.0000000000000000     
   4.8909719207335164E-003   3.0193116499937925E-003   0.0000000000000000     
   9.5738103226406003E-003   6.0549349042615871E-003   0.0000000000000000     
   1.4048515205721252E-002   9.1068697628033830E-003   0.0000000000000000     
   1.8315086569975471E-002   1.2175116225619183E-002   0.0000000000000000     
   0.0000000000000000        0.0000000000000000        0.0000000000000000     
   3.9541741053649368E-003   2.4226500451871914E-003   0.0000000000000000     
   7.9119350472848949E-003   5.0576966028114947E-003   0.0000000000000000     
   1.1873282825759873E-002   7.9051396728729104E-003   0.0000000000000000     
   1.5838217440789875E-002   1.0964979255371439E-002   0.0000000000000000     
   0.0000000000000000        0.0000000000000000        0.0000000000000000     
   3.2840466952509108E-003   1.9971335328570284E-003   0.0000000000000000     
   6.6784552224462088E-003   4.3261426649102604E-003   0.0000000000000000     
   1.0183225581585895E-002   6.9870273961596977E-003   0.0000000000000000     
   1.3798357772669972E-002   9.9797877266053370E-003   0.0000000000000000     
   0.0000000000000000        0.0000000000000000        0.0000000000000000     
   2.8805896903914396E-003   1.7427621130033039E-003   0.0000000000000000     
   5.8733708481245464E-003   3.8602730905578850E-003   0.0000000000000000     
   8.9783434731993197E-003   6.3525329326637433E-003   0.0000000000000000     
   1.2195507565615760E-002   9.2195416393208770E-003   0.0000000000000000     
   2.1228965160226754E-002   1.3610198637348567E-002   0.0000000000000000     
   2.5436786084408552E-002   1.6600705629267947E-002   0.0000000000000000     
   2.9544963213640460E-002   1.9792643787524326E-002   0.0000000000000000     
   3.3553496547922487E-002   2.3186013112117699E-002   0.0000000000000000     
   3.7462386087254627E-002   2.6780813603048063E-002   0.0000000000000000     
   1.8315086569975471E-002   1.2175116225619183E-002   0.0000000000000000     
   2.2412138324015066E-002   1.5326965465017659E-002   0.0000000000000000     
   2.6378284376451854E-002   1.8629708653307493E-002   0.0000000000000000     
   3.0213524727285834E-002   2.2083345790488682E-002   0.0000000000000000     
   3.3917859376517007E-002   2.5687876876561225E-002   0.0000000000000000     
   1.5838217440789875E-002   1.0964979255371439E-002   0.0000000000000000     
   1.9735648332801708E-002   1.4195433539604705E-002   0.0000000000000000     
   2.3494484942222185E-002   1.7554720714870325E-002   0.0000000000000000     
   2.7114727269051304E-002   2.1042840781168304E-002   0.0000000000000000     
   3.0596375313289060E-002   2.4659793738498640E-002   0.0000000000000000     
   1.3798357772669972E-002   9.9797877266053370E-003   0.0000000000000000     
   1.7407316110768477E-002   1.3206109853029080E-002   0.0000000000000000     
   2.0893564910951443E-002   1.6567679972212822E-002   0.0000000000000000     
   2.4257104173218878E-002   2.0064498084156560E-002   0.0000000000000000     
   2.7497933897570784E-002   2.3696564188860295E-002   0.0000000000000000     
   1.2195507565615760E-002   9.2195416393208770E-003   0.0000000000000000     
   1.5427141657915366E-002   1.2358994405290789E-002   0.0000000000000000     
   1.8575524282639640E-002   1.5668586425334981E-002   0.0000000000000000     
   2.1640655439788575E-002   1.9148317699453452E-002   0.0000000000000000     
   2.4622535129362175E-002   2.2798188227646198E-002   0.0000000000000000     
   3.7462386087254627E-002   2.6780813603048063E-002   0.0000000000000000     
   4.1281517142173881E-002   3.0575908035269005E-002   0.0000000000000000     
   4.5020775023217240E-002   3.4570159183734114E-002   0.0000000000000000     
   4.8680159730384712E-002   3.8763567048443394E-002   0.0000000000000000     
   5.2259671263676297E-002   4.3156131629396834E-002   0.0000000000000000     
   3.3917859376517007E-002   2.5687876876561225E-002   0.0000000000000000     
   3.7516443297631083E-002   2.9473922839181405E-002   0.0000000000000000     
   4.1034431464113785E-002   3.3472104606005498E-002   0.0000000000000000     
   4.4471823875965114E-002   3.7682422177033478E-002   0.0000000000000000     
   4.7828620533185061E-002   4.2104875552265379E-002   0.0000000000000000     
   3.0596375313289060E-002   2.4659793738498640E-002   0.0000000000000000     
   3.3968255623752441E-002   2.8450954712047932E-002   0.0000000000000000     
   3.7259194749258435E-002   3.2461698827002776E-002   0.0000000000000000     
   4.0469192689807032E-002   3.6692026083363180E-002   0.0000000000000000     
   4.3598249445398231E-002   4.1141936481129134E-002   0.0000000000000000     
   2.7497933897570784E-002   2.3696564188860295E-002   0.0000000000000000     
   3.0636954120537949E-002   2.7507003653868586E-002   0.0000000000000000     
   3.3695064878651169E-002   3.1538941846725982E-002   0.0000000000000000     
   3.6672266171910453E-002   3.5792378767432485E-002   0.0000000000000000     
   3.9568558000315800E-002   4.0267314415988104E-002   0.0000000000000000     
   2.4622535129362175E-002   2.2798188227646198E-002   0.0000000000000000     
   2.7522538787987594E-002   2.6642069664643369E-002   0.0000000000000000     
   3.0342041852291998E-002   3.0703833665175099E-002   0.0000000000000000     
   3.3081044322275377E-002   3.4983480229241394E-002   0.0000000000000000     
   3.5739546197937754E-002   3.9481009356842262E-002   0.0000000000000000     
   5.2259671263676297E-002   4.3156131629396834E-002   0.0000000000000000     
   5.5757035360340115E-002   4.7761332583512124E-002   0.0000000000000000     
   5.9169977757624316E-002   5.2592649567706956E-002   0.0000000000000000     
   6.2498498455528871E-002   5.7650082581981343E-002   0.0000000000000000     
   6.5742597454053808E-002   6.2933631626335251E-002   0.0000000000000000     
   4.7828620533185061E-002   4.2104875552265379E-002   0.0000000000000000     
   5.1107939223297948E-002   4.6743013873594801E-002   0.0000000000000000     
   5.4312897733828067E-002   5.1600386282915363E-002   0.0000000000000000     
   5.7443496064775439E-002   5.6676992780227045E-002   0.0000000000000000     
   6.0499734216140036E-002   6.1972833365529875E-002   0.0000000000000000     
   4.3598249445398231E-002   4.1141936481129134E-002   0.0000000000000000     
   4.6651586885921630E-002   4.5808528397384439E-002   0.0000000000000000     
   4.9634426881266840E-002   5.0688900209212878E-002   0.0000000000000000     
   5.2546769431433847E-002   5.5783051916614465E-002   0.0000000000000000     
   5.5388614536422659E-002   6.1090983519589179E-002   0.0000000000000000     
   3.9568558000315800E-002   4.0267314415988104E-002   0.0000000000000000     
   4.2387978348211189E-002   4.4957876154881039E-002   0.0000000000000000     
   4.5134565199940628E-002   4.9858191346599530E-002   0.0000000000000000     
   4.7808318555504131E-002   5.4968259991143568E-002   0.0000000000000000     
   5.0409238414901671E-002   6.0288082088513169E-002   0.0000000000000000     
   3.5739546197937754E-002   3.9481009356842262E-002   0.0000000000000000     
   3.8317113610166612E-002   4.4191057146084581E-002   0.0000000000000000     
   4.0813312689849439E-002   4.9108259695075297E-002   0.0000000000000000     
   4.3228143436986263E-002   5.4232617003814383E-002   0.0000000000000000     
   4.5561605851577071E-002   5.9564129072301859E-002   0.0000000000000000     
   6.5742597454053808E-002   6.2933631626335251E-002   0.0000000000000000     
   6.8904996207118985E-002   6.8411472581431820E-002   0.0000000000000000     
   7.1988416168644237E-002   7.4051781327934108E-002   0.0000000000000000     
   7.4992857338629607E-002   7.9854557865842155E-002   0.0000000000000000     
   7.7918319717075052E-002   8.5819802195155948E-002   0.0000000000000000     
   6.0499734216140036E-002   6.1972833365529875E-002   0.0000000000000000     
   6.3481010193667545E-002   6.7462704763304071E-002   0.0000000000000000     
   6.6386722003103624E-002   7.3121403698029885E-002   0.0000000000000000     
   6.9216869644448273E-002   7.8948930169707318E-002   0.0000000000000000     
   7.1971453117701464E-002   8.4945284178336383E-002   0.0000000000000000     
   5.5388614536422659E-002   6.1090983519589179E-002   0.0000000000000000     
   5.8160194993400208E-002   6.6592945224708364E-002   0.0000000000000000     
   6.0861743599533419E-002   7.2269187238543350E-002   0.0000000000000000     
   6.3493260354822292E-002   7.8119709561094125E-002   0.0000000000000000     
   6.6054745259266801E-002   8.4144512192360701E-002   0.0000000000000000     
   5.0409238414901671E-002   6.0288082088513169E-002   0.0000000000000000     
   5.2942550606316939E-002   6.5802193965644684E-002   0.0000000000000000     
   5.5413480957933595E-002   7.1495131949474475E-002   0.0000000000000000     
   5.7822029469751651E-002   7.7366896040002561E-002   0.0000000000000000     
   6.0168196141771095E-002   8.3417486237228930E-002   0.0000000000000000     
   4.5561605851577071E-002   5.9564129072301859E-002   0.0000000000000000     
   4.7828077032417746E-002   6.5090450986113046E-002   0.0000000000000000     
   5.0041934078304179E-002   7.0799237830823314E-002   0.0000000000000000     
   5.2203176989236363E-002   7.6690489606432655E-002   0.0000000000000000     
   5.4311805765214299E-002   8.2764206312941069E-002   0.0000000000000000     
   7.7918319717075052E-002   8.5819802195155948E-002   0.0000000000000000     
   8.0754981257188482E-002   9.1949431955837352E-002   0.0000000000000000     
   8.3493019912177766E-002   9.8245364787848219E-002   0.0000000000000000     
   8.6132435682042888E-002  0.10470760069118856        0.0000000000000000     
   8.8673228566783877E-002  0.11133613966585840        0.0000000000000000     
   7.1971453117701464E-002   8.4945284178336383E-002   0.0000000000000000     
   7.4638806727683138E-002   9.1108548407990986E-002   0.0000000000000000     
   7.7207264779213178E-002   9.7436805542745100E-002   0.0000000000000000     
   7.9676827272291570E-002  0.10393005558259870        0.0000000000000000     
   8.2047494206918342E-002  0.11058829852755181        0.0000000000000000     
   6.6054745259266801E-002   8.4144512192360701E-002   0.0000000000000000     
   6.8532373170489949E-002   9.0338497421691089E-002   0.0000000000000000     
   7.0912318946114578E-002   9.6696567538433295E-002   0.0000000000000000     
   7.3194582586140783E-002  0.10321872254258731        0.0000000000000000     
   7.5379164090568468E-002  0.10990496243415314        0.0000000000000000     
   6.0168196141771095E-002   8.3417486237228930E-002   0.0000000000000000     
   6.2435680585608888E-002   8.9639278996937632E-002   0.0000000000000000     
   6.4608182412882020E-002   9.6024650774912804E-002   0.0000000000000000     
   6.6685701623590471E-002  0.10257360157115436        0.0000000000000000     
   6.8668238217734268E-002  0.10928613138566240        0.0000000000000000     
   5.4311805765214299E-002   8.2764206312941069E-002   0.0000000000000000     
   5.6348728973040003E-002   8.9010893133730673E-002   0.0000000000000000     
   5.8294855179515472E-002   9.5421055252183612E-002   0.0000000000000000     
   6.0150184384640717E-002  0.10199469266829991        0.0000000000000000     
   6.1914716588415734E-002  0.10873180538207952        0.0000000000000000     
   8.8673228566783877E-002  0.11133613966585840        0.0000000000000000     
   9.1115179520541656E-002  0.11813406234069607        0.0000000000000000     
   9.3458069497457177E-002  0.12510444934454001        0.0000000000000000     
   9.5701898497530427E-002  0.13224730067739018        0.0000000000000000     
   9.7846666520761433E-002  0.13956261633924663        0.0000000000000000     
   8.2047494206918342E-002  0.11058829852755181        0.0000000000000000     
   8.4326184986190184E-002  0.11741123139538889        0.0000000000000000     
   8.6519819013203839E-002  0.12439855120389440        0.0000000000000000     
   8.8628396287959293E-002  0.13155025795306835        0.0000000000000000     
   9.0651916810456548E-002  0.13886635164291072        0.0000000000000000     
   7.5379164090568468E-002  0.10990496243415314        0.0000000000000000     
   7.7474438851364069E-002  0.11675155675430432        0.0000000000000000     
   7.9488782260493926E-002  0.12375477504421434        0.0000000000000000     
   8.1422194317958024E-002  0.13091461730388321        0.0000000000000000     
   8.3274675023756406E-002  0.13823108353331096        0.0000000000000000     
   6.8668238217734268E-002  0.10928613138566240        0.0000000000000000     
   7.0559941116063271E-002  0.11615503841744236        0.0000000000000000     
   7.2364959239327398E-002  0.12317312086549984        0.0000000000000000     
   7.4083292587526647E-002  0.13034037872983484        0.0000000000000000     
   7.5714941160661020E-002  0.13765681201044733        0.0000000000000000     
   6.1914716588415734E-002  0.10873180538207952        0.0000000000000000     
   6.3582691780287817E-002  0.11562167638480302        0.0000000000000000     
   6.5148349949704282E-002  0.12265358866775089        0.0000000000000000     
   6.6611691096665135E-002  0.12982754223092313        0.0000000000000000     
   6.7972715221170363E-002  0.13714353707431975        0.0000000000000000     
   9.7846666520761433E-002  0.13956261633924663        0.0000000000000000     
   9.9809708329081301E-002  0.14692706586231136        0.0000000000000000     
  0.10150835868442121       0.15421731877878639        0.0000000000000000     
  0.10294261758678112       0.16143337508867178        0.0000000000000000     
  0.10411248503616106       0.16857523479196748        0.0000000000000000     
   9.0651916810456548E-002  0.13886635164291072        0.0000000000000000     
   9.2559947429074890E-002  0.14628397657822736        0.0000000000000000     
   9.4322054992193607E-002  0.15374027706382409        0.0000000000000000     
   9.5938239499812727E-002  0.16123525309970091        0.0000000000000000     
   9.7408500951932209E-002  0.16876890468585781        0.0000000000000000     
   8.3274675023756406E-002  0.13823108353331096        0.0000000000000000     
   8.5044533704437070E-002  0.14567697342047434        0.0000000000000000     
   8.6730079686548070E-002  0.15322508665335027        0.0000000000000000     
   8.8331312970089393E-002  0.16087542323193865        0.0000000000000000     
   8.9848233555061024E-002  0.16862798315623950        0.0000000000000000     
   7.5714941160661020E-002  0.13765681201044733        0.0000000000000000     
   7.7263467155167867E-002  0.14510605638905230        0.0000000000000000     
   7.8732432767484567E-002  0.15267174754736487        0.0000000000000000     
   8.0121837997611120E-002  0.16035388548538490        0.0000000000000000     
   8.1431682845547512E-002  0.16815247020311253        0.0000000000000000     
   6.7972715221170363E-002  0.13714353707431975        0.0000000000000000     
   6.9216747781267268E-002  0.14457122548396117        0.0000000000000000     
   7.0329114235003098E-002  0.15208025974586789        0.0000000000000000     
   7.1309814582377923E-002  0.15967063986003979        0.0000000000000000     
   7.2158848823391672E-002  0.16734236582647691        0.0000000000000000     
   0.0000000000000000        0.0000000000000000        0.0000000000000000     
   2.8805896903914396E-003   1.7427621130033039E-003   0.0000000000000000     
   5.8733708481245464E-003   3.8602730905578850E-003   0.0000000000000000     
   8.9783434731993197E-003   6.3525329326637433E-003   0.0000000000000000     
   1.2195507565615760E-002   9.2195416393208770E-003   0.0000000000000000     
   0.0000000000000000        0.0000000000000000        0.0000000000000000     
   2.6103315081002351E-003   1.5870289322556959E-003   0.0000000000000000     
   5.2893715991648559E-003   3.5529170149225038E-003   0.0000000000000000     
   8.0371202731938634E-003   5.8976642480004244E-003   0.0000000000000000     
   1.0853577530187257E-002   8.6212706314894565E-003   0.0000000000000000     
   0.0000000000000000        0.0000000000000000        0.0000000000000000     
   2.3398005656910100E-003   1.4574271372438806E-003   0.0000000000000000     
   4.7191471504120933E-003   3.2969035731722530E-003   0.0000000000000000     
   7.1380397541632497E-003   5.5184293077851195E-003   0.0000000000000000     
   9.5964783769444794E-003   8.1220043410824769E-003   0.0000000000000000     
   0.0000000000000000        0.0000000000000000        0.0000000000000000     
   2.0689968631637645E-003   1.3539567279678591E-003   0.0000000000000000     
   4.1626975018662559E-003   3.0922327653071348E-003   0.0000000000000000     
   6.2811019161074762E-003   5.2148281120178277E-003   0.0000000000000000     
   8.4242101058874218E-003   7.7217427680999363E-003   0.0000000000000000     
   0.0000000000000000        0.0000000000000000        0.0000000000000000     
   1.7979204005184992E-003   1.2766177044276307E-003   0.0000000000000000     
   3.6200226535273473E-003   2.9389045913271470E-003   0.0000000000000000     
   5.4663067590265445E-003   4.9868606606985489E-003   0.0000000000000000     
   7.3367727170160907E-003   7.4204859125418365E-003   0.0000000000000000     
   1.2195507565615760E-002   9.2195416393208770E-003   0.0000000000000000     
   1.5427141657915366E-002   1.2358994405290789E-002   0.0000000000000000     
   1.8575524282639640E-002   1.5668586425334981E-002   0.0000000000000000     
   2.1640655439788575E-002   1.9148317699453452E-002   0.0000000000000000     
   2.4622535129362175E-002   2.2798188227646198E-002   0.0000000000000000     
   1.0853577530187257E-002   8.6212706314894565E-003   0.0000000000000000     
   1.3684839605721115E-002   1.1641281571605499E-002   0.0000000000000000     
   1.6477002735371511E-002   1.4875242474564440E-002   0.0000000000000000     
   1.9230066919138439E-002   1.8323153340366286E-002   0.0000000000000000     
   2.1944032157021912E-002   2.1985014169011035E-002   0.0000000000000000     
   9.5964783769444794E-003   8.1220043410824769E-003   0.0000000000000000     
   1.2070124585664440E-002   1.1040165727188869E-002   0.0000000000000000     
   1.4534639947231795E-002   1.4205450520228835E-002   0.0000000000000000     
   1.6990024461646547E-002   1.7617858720202381E-002   0.0000000000000000     
   1.9436278128908687E-002   2.1277390327109499E-002   0.0000000000000000     
   8.4242101058874218E-003   7.7217427680999363E-003   0.0000000000000000     
   1.0582996597745347E-002   1.0555646872040900E-002   0.0000000000000000     
   1.2748435918220499E-002   1.3659210562328166E-002   0.0000000000000000     
   1.4920528067312882E-002   1.7032433838961730E-002   0.0000000000000000     
   1.7099273045022491E-002   2.0675316701941591E-002   0.0000000000000000     
   7.3367727170160907E-003   7.4204859125418365E-003   0.0000000000000000     
   9.2234556419638347E-003   1.0187725006161599E-002   0.0000000000000000     
   1.1118390648337624E-002   1.3236522600862432E-002   0.0000000000000000     
   1.3021577736137456E-002   1.6566878696644333E-002   0.0000000000000000     
   1.4933016905363335E-002   2.0178793293507302E-002   0.0000000000000000     
   2.4622535129362175E-002   2.2798188227646198E-002   0.0000000000000000     
   2.7522538787987594E-002   2.6642069664643369E-002   0.0000000000000000     