 <VTKFile type="UnstructuredGrid"  version="0.1"   >
 <UnstructuredGrid>
 <Piece  NumberOfPoints="          1600 "  NumberOfCells="         1024 ">
 <Points>
 <DataArray  type="Float64" NumberOfComponents="3"  format="ascii" >
   0.0000000000000000        0.0000000000000000        0.0000000000000000     
   3.1250000000000000E-002   0.0000000000000000        0.0000000000000000     
   6.2500000000000000E-002   0.0000000000000000        0.0000000000000000     
   9.3750000000000000E-002   0.0000000000000000        0.0000000000000000     
  0.12500000000000000        0.0000000000000000        0.0000000000000000     
   0.0000000000000000        3.1250000000000000E-002   0.0000000000000000     
   3.1250000000000000E-002   3.1250000000000000E-002   0.0000000000000000     
   6.2500000000000000E-002   3.1250000000000000E-002   0.0000000000000000     
   9.3750000000000000E-002   3.1250000000000000E-002   0.0000000000000000     
  0.12500000000000000        3.1250000000000000E-002   0.0000000000000000     
   0.0000000000000000        6.2500000000000000E-002   0.0000000000000000     
   3.1250000000000000E-002   6.2500000000000000E-002   0.0000000000000000     
   6.2500000000000000E-002   6.2500000000000000E-002   0.0000000000000000     
   9.3750000000000000E-002   6.2500000000000000E-002   0.0000000000000000     
  0.12500000000000000        6.2500000000000000E-002   0.0000000000000000     
   0.0000000000000000        9.3750000000000000E-002   0.0000000000000000     
   3.1250000000000000E-002   9.3750000000000000E-002   0.0000000000000000     
   6.2500000000000000E-002   9.3750000000000000E-002   0.0000000000000000     
   9.3750000000000000E-002   9.3750000000000000E-002   0.0000000000000000     
  0.12500000000000000        9.3750000000000000E-002   0.0000000000000000     
   0.0000000000000000       0.12500000000000000        0.0000000000000000     
   3.1250000000000000E-002  0.12500000000000000        0.0000000000000000     
   6.2500000000000000E-002  0.12500000000000000        0.0000000000000000     
   9.3750000000000000E-002  0.12500000000000000        0.0000000000000000     
  0.12500000000000000       0.12500000000000000        0.0000000000000000     
  0.12500000000000000        0.0000000000000000        0.0000000000000000     
  0.15625000000000000        0.0000000000000000        0.0000000000000000     
  0.18750000000000000        0.0000000000000000        0.0000000000000000     
  0.21875000000000000        0.0000000000000000        0.0000000000000000     
  0.25000000000000000        0.0000000000000000        0.0000000000000000     
  0.12500000000000000        3.1250000000000000E-002   0.0000000000000000     
  0.15625000000000000        3.1250000000000000E-002   0.0000000000000000     
  0.18750000000000000        3.1250000000000000E-002   0.0000000000000000     
  0.21875000000000000        3.1250000000000000E-002   0.0000000000000000     
  0.25000000000000000        3.1250000000000000E-002   0.0000000000000000     
  0.12500000000000000        6.2500000000000000E-002   0.0000000000000000     
  0.15625000000000000        6.2500000000000000E-002   0.0000000000000000     
  0.18750000000000000        6.2500000000000000E-002   0.0000000000000000     
  0.21875000000000000        6.2500000000000000E-002   0.0000000000000000     
  0.25000000000000000        6.2500000000000000E-002   0.0000000000000000     
  0.12500000000000000        9.3750000000000000E-002   0.0000000000000000     
  0.15625000000000000        9.3750000000000000E-002   0.0000000000000000     
  0.18750000000000000        9.3750000000000000E-002   0.0000000000000000     
  0.21875000000000000        9.3750000000000000E-002   0.0000000000000000     
  0.25000000000000000        9.3750000000000000E-002   0.0000000000000000     
  0.12500000000000000       0.12500000000000000        0.0000000000000000     
  0.15625000000000000       0.12500000000000000        0.0000000000000000     
  0.18750000000000000       0.12500000000000000        0.0000000000000000     
  0.21875000000000000       0.12500000000000000        0.0000000000000000     
  0.25000000000000000       0.12500000000000000        0.0000000000000000     
  0.25000000000000000        0.0000000000000000        0.0000000000000000     
  0.28125000000000000        0.0000000000000000        0.0000000000000000     
  0.31250000000000000        0.0000000000000000        0.0000000000000000     
  0.34375000000000000        0.0000000000000000        0.0000000000000000     
  0.37500000000000000        0.0000000000000000        0.0000000000000000     
  0.25000000000000000        3.1250000000000000E-002   0.0000000000000000     
  0.28125000000000000        3.1250000000000000E-002   0.0000000000000000     
  0.31250000000000000        3.1250000000000000E-002   0.0000000000000000     
  0.34375000000000000        3.1250000000000000E-002   0.0000000000000000     
  0.37500000000000000        3.1250000000000000E-002   0.0000000000000000     
  0.25000000000000000        6.2500000000000000E-002   0.0000000000000000     
  0.28125000000000000        6.2500000000000000E-002   0.0000000000000000     
  0.31250000000000000        6.2500000000000000E-002   0.0000000000000000     
  0.34375000000000000        6.2500000000000000E-002   0.0000000000000000     
  0.37500000000000000        6.2500000000000000E-002   0.0000000000000000     
  0.25000000000000000        9.3750000000000000E-002   0.0000000000000000     
  0.28125000000000000        9.3750000000000000E-002   0.0000000000000000     
  0.31250000000000000        9.3750000000000000E-002   0.0000000000000000     
  0.34375000000000000        9.3750000000000000E-002   0.0000000000000000     
  0.37500000000000000        9.3750000000000000E-002   0.0000000000000000     
  0.25000000000000000       0.12500000000000000        0.0000000000000000     
  0.28125000000000000       0.12500000000000000        0.0000000000000000     
  0.31250000000000000       0.12500000000000000        0.0000000000000000     
  0.34375000000000000       0.12500000000000000        0.0000000000000000     
  0.37500000000000000       0.12500000000000000        0.0000000000000000     
  0.37500000000000000        0.0000000000000000        0.0000000000000000     
  0.40625000000000000        0.0000000000000000        0.0000000000000000     
  0.43750000000000000        0.0000000000000000        0.0000000000000000     
  0.46875000000000000        0.0000000000000000        0.0000000000000000     
  0.50000000000000000        0.0000000000000000        0.0000000000000000     
  0.37500000000000000        3.1250000000000000E-002   0.0000000000000000     
  0.40625000000000000        3.1250000000000000E-002   0.0000000000000000     
  0.43750000000000000        3.1250000000000000E-002   0.0000000000000000     
  0.46875000000000000        3.1250000000000000E-002   0.0000000000000000     
  0.50000000000000000        3.1250000000000000E-002   0.0000000000000000     
  0.37500000000000000        6.2500000000000000E-002   0.0000000000000000     
  0.40625000000000000        6.2500000000000000E-002   0.0000000000000000     
  0.43750000000000000        6.2500000000000000E-002   0.0000000000000000     
  0.46875000000000000        6.2500000000000000E-002   0.0000000000000000     
  0.50000000000000000        6.2500000000000000E-002   0.0000000000000000     
  0.37500000000000000        9.3750000000000000E-002   0.0000000000000000     
  0.40625000000000000        9.3750000000000000E-002   0.0000000000000000     
  0.43750000000000000        9.3750000000000000E-002   0.0000000000000000     
  0.46875000000000000        9.3750000000000000E-002   0.0000000000000000     
  0.50000000000000000        9.3750000000000000E-002   0.0000000000000000     
  0.37500000000000000       0.12500000000000000        0.0000000000000000     
  0.40625000000000000       0.12500000000000000        0.0000000000000000     
  0.43750000000000000       0.12500000000000000        0.0000000000000000     
  0.46875000000000000       0.12500000000000000        0.0000000000000000     
  0.50000000000000000       0.12500000000000000        0.0000000000000000     
  0.50000000000000000        0.0000000000000000        0.0000000000000000     
  0.53125000000000000        0.0000000000000000        0.0000000000000000     
  0.56250000000000000        0.0000000000000000        0.0000000000000000     
  0.59375000000000000        0.0000000000000000        0.0000000000000000     
  0.62500000000000000        0.0000000000000000        0.0000000000000000     
  0.50000000000000000        3.1250000000000000E-002   0.0000000000000000     
  0.53125000000000000        3.1250000000000000E-002   0.0000000000000000     
  0.56250000000000000        3.1250000000000000E-002   0.0000000000000000     
  0.59375000000000000        3.1250000000000000E-002   0.0000000000000000     
  0.62500000000000000        3.1250000000000000E-002   0.0000000000000000     
  0.50000000000000000        6.2500000000000000E-002   0.0000000000000000     
  0.53125000000000000        6.2500000000000000E-002   0.0000000000000000     
  0.56250000000000000        6.2500000000000000E-002   0.0000000000000000     
  0.59375000000000000        6.2500000000000000E-002   0.0000000000000000     
  0.62500000000000000        6.2500000000000000E-002   0.0000000000000000     
  0.50000000000000000        9.3750000000000000E-002   0.0000000000000000     
  0.53125000000000000        9.3750000000000000E-002   0.0000000000000000     
  0.56250000000000000        9.3750000000000000E-002   0.0000000000000000     
  0.59375000000000000        9.3750000000000000E-002   0.0000000000000000     
  0.62500000000000000        9.3750000000000000E-002   0.0000000000000000     
  0.50000000000000000       0.12500000000000000        0.0000000000000000     
  0.53125000000000000       0.12500000000000000        0.0000000000000000     
  0.56250000000000000       0.12500000000000000        0.0000000000000000     
[...]
 <PointData>
 <DataArray  type="Float64" Name="disp" NumberOfComponents="3" format="ascii">
   0.0000000000000000        0.0000000000000000        0.0000000000000000     
  -2.4617916170150793E-003  -8.8186670924946095E-004   0.0000000000000000     
  -4.9239781356801068E-003  -2.1302719587817029E-003   0.0000000000000000     
  -7.3865595559950842E-003  -3.7452157485967268E-003   0.0000000000000000     
  -9.8495358779600098E-003  -5.7266980786945315E-003   0.0000000000000000     
   0.0000000000000000        0.0000000000000000        0.0000000000000000     
  -2.0106141808798241E-003  -7.8903291734437392E-004   0.0000000000000000     
  -4.0916197077250256E-003  -1.8291514438464052E-003   0.0000000000000000     
  -6.2430165805356045E-003  -3.1203555795060942E-003   0.0000000000000000     
  -8.4648047993115608E-003  -4.6626453243234414E-003   0.0000000000000000     
   0.0000000000000000        0.0000000000000000        0.0000000000000000     
  -1.6542682223720357E-003  -6.6935583162864101E-004   0.0000000000000000     
  -3.4134958145650512E-003  -1.5287383176026941E-003   0.0000000000000000     
  -5.2776827765790447E-003  -2.5781474579221601E-003   0.0000000000000000     
  -7.2468291084140189E-003  -3.8175832525870375E-003   0.0000000000000000     
   0.0000000000000000        0.0000000000000000        0.0000000000000000     
  -1.3927537414917151E-003  -5.2283545210226223E-004   0.0000000000000000     
  -2.8896064562001843E-003  -1.2290325800505698E-003   0.0000000000000000     
  -4.4905581441254073E-003  -2.1185913838449233E-003   0.0000000000000000     
  -6.1956088052673849E-003  -3.1915118634853212E-003   0.0000000000000000     
   0.0000000000000000        0.0000000000000000        0.0000000000000000     
  -1.2260707382388616E-003  -3.4947177876523759E-004   0.0000000000000000     
  -2.5199516326304254E-003  -9.3003423119003212E-004   0.0000000000000000     
  -3.8816426831746915E-003  -1.7416873572743835E-003   0.0000000000000000     
  -5.3111438898716607E-003  -2.7844311570182916E-003   0.0000000000000000     
  -9.8495358779600098E-003  -5.7266980786945315E-003   0.0000000000000000     
  -1.2111361834771520E-002  -7.5755702348112644E-003   0.0000000000000000     
  -1.3970492159626249E-002  -8.7926835026830713E-003   0.0000000000000000     
  -1.5426926852524196E-002  -9.3780378823099548E-003   0.0000000000000000     
  -1.6480665913465364E-002  -9.3316333736919114E-003   0.0000000000000000     
  -8.4648047993115608E-003  -4.6626453243234414E-003   0.0000000000000000     
  -1.0587659478552855E-002  -6.2406036234619166E-003   0.0000000000000000     
  -1.2442255732759453E-002  -7.6388134220849932E-003   0.0000000000000000     
  -1.4028593561931349E-002  -8.8572747201926712E-003   0.0000000000000000     
  -1.5346672966068547E-002  -9.8959875177849488E-003   0.0000000000000000     
  -7.2468291084140189E-003  -3.8175832525870375E-003   0.0000000000000000     
  -9.1919596996371256E-003  -5.2098065263807896E-003   0.0000000000000000     
  -1.0984099439815513E-002  -6.7175781040868781E-003   0.0000000000000000     
  -1.2623248328949186E-002  -8.3408979857053020E-003   0.0000000000000000     
  -1.4109406367038144E-002  -1.0079766171236064E-002   0.0000000000000000     
  -6.1956088052673849E-003  -3.1915118634853212E-003   0.0000000000000000     
  -7.9242624980243245E-003  -4.4831789435678835E-003   0.0000000000000000     
  -9.5960232807944332E-003  -6.0289775486887243E-003   0.0000000000000000     
  -1.1210891153577710E-002  -7.8289076788478473E-003   0.0000000000000000     
  -1.2768866116374154E-002  -9.8829693340452517E-003   0.0000000000000000     
  -5.3111438898716607E-003  -2.7844311570182916E-003   0.0000000000000000     
  -6.7845678737144576E-003  -4.0607208750231957E-003   0.0000000000000000     
  -8.2780272556962076E-003  -5.5730117558905343E-003   0.0000000000000000     
  -9.7915220358169141E-003  -7.3213037996203078E-003   0.0000000000000000     
  -1.1325052214076573E-002  -9.3055970062125154E-003   0.0000000000000000     
  -1.6480665913465364E-002  -9.3316333736919114E-003   0.0000000000000000     
  -1.7857315295098288E-002  -9.9041712177069009E-003   0.0000000000000000     
  -2.0282480950071513E-002  -1.2346352655232876E-002   0.0000000000000000     
  -2.3756162878385036E-002  -1.6658177686269843E-002   0.0000000000000000     
  -2.8278361080038852E-002  -2.2839646310817793E-002   0.0000000000000000     
  -1.5346672966068547E-002  -9.8959875177849488E-003   0.0000000000000000     
  -1.6778912267052675E-002  -1.1211717238175515E-002   0.0000000000000000     
  -1.8707729786765364E-002  -1.3261229304678053E-002   0.0000000000000000     
  -2.1133125525206613E-002  -1.6044523717292564E-002   0.0000000000000000     
  -2.4055099482376423E-002  -1.9561600476019046E-002   0.0000000000000000     
  -1.4109406367038144E-002  -1.0079766171236064E-002   0.0000000000000000     
  -1.5564362564931600E-002  -1.1892131402349640E-002   0.0000000000000000     
  -1.7109905933478761E-002  -1.3735942420716504E-002   0.0000000000000000     
  -1.8746036472679625E-002  -1.5611199226336662E-002   0.0000000000000000     
  -2.0472754182534199E-002  -1.7517901819210115E-002   0.0000000000000000     
  -1.2768866116374154E-002  -9.8829693340452517E-003   0.0000000000000000     
  -1.4213666188735052E-002  -1.1945413710229268E-002   0.0000000000000000     
  -1.5489009390211689E-002  -1.3770492003348228E-002   0.0000000000000000     
  -1.6594895720804061E-002  -1.5358204213402133E-002   0.0000000000000000     
  -1.7531325180512175E-002  -1.6708550340390985E-002   0.0000000000000000     
  -1.1325052214076573E-002  -9.3055970062125154E-003   0.0000000000000000     
  -1.2726823138463038E-002  -1.1371564161814405E-002   0.0000000000000000     
  -1.3845040156964158E-002  -1.3364878052573227E-002   0.0000000000000000     
  -1.4679703269579932E-002  -1.5285538678488982E-002   0.0000000000000000     
  -1.5230812476310359E-002  -1.7133546039561666E-002   0.0000000000000000     
  -2.8278361080038852E-002  -2.2839646310817793E-002   0.0000000000000000     
  -3.1985308029766991E-002  -2.8500659021960324E-002   0.0000000000000000     
  -3.3013236202303460E-002  -3.1251116312781047E-002   0.0000000000000000     
  -3.1362145597648258E-002  -3.1091018183279938E-002   0.0000000000000000     
  -2.7032036215801386E-002  -2.8020364633457018E-002   0.0000000000000000     
  -2.4055099482376423E-002  -1.9561600476019046E-002   0.0000000000000000     
  -2.6695733065559564E-002  -2.3167956177937560E-002   0.0000000000000000     
  -2.8277107682040798E-002  -2.6219087420128157E-002   0.0000000000000000     
  -2.8799223331820136E-002  -2.8714994202590844E-002   0.0000000000000000     
  -2.8262080014897578E-002  -3.0655676525325616E-002   0.0000000000000000     
  -2.0472754182534199E-002  -1.7517901819210115E-002   0.0000000000000000     
  -2.2274979780297962E-002  -1.9848046630818586E-002   0.0000000000000000     
  -2.4137633983226395E-002  -2.2993630092643831E-002   0.0000000000000000     
  -2.6060716791319501E-002  -2.6954652204685840E-002   0.0000000000000000     
  -2.8044228204577283E-002  -3.1731112966944607E-002   0.0000000000000000     
  -1.7531325180512175E-002  -1.6708550340390985E-002   0.0000000000000000     
  -1.8723048173982182E-002  -1.8540930380603417E-002   0.0000000000000000     
  -2.0594815105860240E-002  -2.1574744330328060E-002   0.0000000000000000     
  -2.3146625976146348E-002  -2.5809992189564923E-002   0.0000000000000000     
  -2.6378480784840508E-002  -3.1246673958313993E-002   0.0000000000000000     
  -1.5230812476310359E-002  -1.7133546039561666E-002   0.0000000000000000     
  -1.6039938246612231E-002  -1.9246607427292034E-002   0.0000000000000000     
  -1.7648651049942333E-002  -2.1962430133180846E-002   0.0000000000000000     
  -2.0056950886300672E-002  -2.5281014157228089E-002   0.0000000000000000     
  -2.3264837755687245E-002  -2.9202359499433776E-002   0.0000000000000000     
  -2.7032036215801386E-002  -2.8020364633457018E-002   0.0000000000000000     
  -2.3908933679107569E-002  -2.3821222533031358E-002   0.0000000000000000     
  -2.5878863609911519E-002  -2.0275658751722037E-002   0.0000000000000000     
  -3.2941826008213243E-002  -1.7383673289529059E-002   0.0000000000000000     
  -4.5097820874012741E-002  -1.5145266146452417E-002   0.0000000000000000     
  -2.8262080014897578E-002  -3.0655676525325616E-002   0.0000000000000000     
  -2.7964171332028998E-002  -3.0398583529631158E-002   0.0000000000000000     
  -2.9203990883970288E-002  -2.6301164356806163E-002   0.0000000000000000     
  -3.1981538670721447E-002  -1.8363419006850623E-002   0.0000000000000000     
  -3.6296814692282471E-002  -6.5853474797645355E-003   0.0000000000000000     
  -2.8044228204577283E-002  -3.1731112966944607E-002   0.0000000000000000     
  -2.9586515731973632E-002  -3.4024705775316091E-002   0.0000000000000000     
  -3.0185926882482454E-002  -3.0537124025696229E-002   0.0000000000000000     
  -2.9842461656103741E-002  -2.1268367718085018E-002   0.0000000000000000     
  -2.8556120052837496E-002  -6.2184368524824691E-003   0.0000000000000000     
  -2.6378480784840508E-002  -3.1246673958313993E-002   0.0000000000000000     
  -2.8775966878941472E-002  -3.4699589270086144E-002   0.0000000000000000     
  -2.8824671605448014E-002  -3.2983537758392231E-002   0.0000000000000000     
  -2.6524594964360135E-002  -2.6098519423232266E-002   0.0000000000000000     
  -2.1875736955677818E-002  -1.4044534264606223E-002   0.0000000000000000     
  -2.3264837755687245E-002  -2.9202359499433776E-002   0.0000000000000000     
  -2.5532524772932517E-002  -3.2423234013941329E-002   0.0000000000000000     
  -2.5120225052866978E-002  -3.3640405554894177E-002   0.0000000000000000     
  -2.2027938595490616E-002  -3.2853874122292334E-002   0.0000000000000000     
  -1.6255665400803435E-002  -3.0063639716135793E-002   0.0000000000000000     
  -4.5097820874012741E-002  -1.5145266146452417E-002   0.0000000000000000     
  -5.8005169576418388E-002  -2.2910832697041490E-002   0.0000000000000000     
  -6.7322193484538578E-002  -5.0030768315845645E-002   0.0000000000000000     
  -7.3048892598373300E-002  -9.6505073002864900E-002   0.0000000000000000     
  -7.5185266917922558E-002 -0.16233374675809920        0.0000000000000000     
  -3.6296814692282471E-002  -6.5853474797645355E-003   0.0000000000000000     
  -4.0807801373284207E-002  -5.1578313694016654E-003   0.0000000000000000     
  -4.4172481138357506E-002  -2.8271752269615771E-002   0.0000000000000000     
  -4.6390853987502347E-002  -7.5927110180406848E-002   0.0000000000000000     
  -4.7462919920718744E-002 -0.14812390510177489        0.0000000000000000     
  -2.8556120052837496E-002  -6.2184368524824691E-003   0.0000000000000000     
  -2.7101498385199211E-002  -8.5690421817583647E-004   0.0000000000000000     
  -2.6253192965704372E-002  -2.0653342604452375E-002   0.0000000000000000     
  -2.6011203794352976E-002  -6.5607752011312095E-002   0.0000000000000000     
  -2.6375530871145029E-002 -0.13572013243875497        0.0000000000000000     
  -2.1875736955677818E-002  -1.4044534264606223E-002   0.0000000000000000     
  -1.6886260612163400E-002  -1.0008051243364005E-002   0.0000000000000000     
  -1.3564328966579194E-002  -2.7175539320355466E-002   0.0000000000000000     
  -1.1909942018925203E-002  -6.5546998495580600E-002   0.0000000000000000     
  -1.1923099769201424E-002 -0.12512242876903945        0.0000000000000000     
  -1.6255665400803435E-002  -3.0063639716135793E-002   0.0000000000000000     
  -1.0162088054176774E-002  -3.2611272444966151E-002   0.0000000000000000     
  -6.1058891409819689E-003  -4.7838342417325028E-002   0.0000000000000000     
  -4.0870686612190189E-003  -7.5744849633212416E-002   0.0000000000000000     
  -4.1056266148879264E-003 -0.11633079409262830        0.0000000000000000     
  -7.5185266917922558E-002 -0.16233374675809920        0.0000000000000000     
  -6.8890967232347791E-002 -0.21508366835036730        0.0000000000000000     
  -4.9325644330810409E-002 -0.22232171654848795        0.0000000000000000     
  -1.6489298213310428E-002 -0.18404789135246108        0.0000000000000000     
   2.9618071120152162E-002 -0.10026219276228678        0.0000000000000000     
  -4.7462919920718744E-002 -0.14812390510177489        0.0000000000000000     
  -4.5287300126655709E-002 -0.21127605871488137        0.0000000000000000     
  -3.7762615793962270E-002 -0.23179749270088776        0.0000000000000000     
  -2.4888866922638395E-002 -0.20968820705979405        0.0000000000000000     
  -6.6660535126841225E-003 -0.14494820179160026        0.0000000000000000     
  -2.6375530871145029E-002 -0.13572013243875497        0.0000000000000000     
  -2.7079031123503457E-002 -0.19995956267403661        0.0000000000000000     
  -2.7854561478851184E-002 -0.22729512150441258        0.0000000000000000     
  -2.8702121937188220E-002 -0.21772680892988291        0.0000000000000000     
  -2.9621712498514557E-002 -0.17125462495044755        0.0000000000000000     
  -1.1923099769201424E-002 -0.12512242876903945        0.0000000000000000     
  -1.4266160222891030E-002 -0.18113418022783304        0.0000000000000000     
  -1.9601481385477182E-002 -0.20881460295906243        0.0000000000000000     
  -2.7929063256959888E-002 -0.20816369696272771        0.0000000000000000     
  -3.9248905837339143E-002 -0.17918146223882880        0.0000000000000000     
  -4.1056266148879264E-003 -0.11633079409262830        0.0000000000000000     
  -6.8486874248184261E-003 -0.15479991137627064        0.0000000000000000     
  -1.3003375513840253E-002 -0.17635593706483735        0.0000000000000000     
  -2.2569690881953406E-002 -0.18099887115832844        0.0000000000000000     
  -3.5547633529157893E-002 -0.16872871365674386        0.0000000000000000     
   2.9618071120152162E-002 -0.10026219276228678        0.0000000000000000     
   6.1059190270922305E-002  -2.5006795947789137E-002   0.0000000000000000     
   4.9896785840344959E-002  -1.2323876078792373E-002   0.0000000000000000     
  -3.8691421715798960E-003  -6.2213433155296489E-002   0.0000000000000000     
 -0.10023859376485224      -0.17467546717730148        0.0000000000000000     
  -6.6660535126841225E-003 -0.14494820179160026        0.0000000000000000     
   7.2273109942699587E-003  -7.8822532944185883E-002   0.0000000000000000     
   7.1127131565932294E-003  -5.2556256565430552E-002   0.0000000000000000     
  -7.0098470257143036E-003  -6.6149372655334243E-002   0.0000000000000000     
  -3.5140369552652650E-002 -0.11960188121389695        0.0000000000000000     
  -2.9621712498514557E-002 -0.17125462495044755        0.0000000000000000     
  -2.8207971394367079E-002 -0.11687973293030030        0.0000000000000000     
  -2.2055536856282650E-002  -8.3603296233634772E-002   0.0000000000000000     
  -1.1164408884261292E-002  -7.1425314860451047E-002   0.0000000000000000     
   4.4654125216970070E-003  -8.0345788810749108E-002   0.0000000000000000     
  -3.9248905837339143E-002 -0.17918146223882880        0.0000000000000000     
  -4.5246656894988802E-002 -0.13917839590613235        0.0000000000000000     
  -3.7607964198282710E-002 -0.10546499508340508        0.0000000000000000     
  -1.6332827747220859E-002  -7.8041259770646923E-002   0.0000000000000000     
   1.8578752458196741E-002  -5.6907189967857943E-002   0.0000000000000000     
  -3.5547633529157893E-002 -0.16872871365674386        0.0000000000000000     
  -4.3888745507595223E-002 -0.14571852187168208        0.0000000000000000     
  -3.9544568869406924E-002 -0.11814135311474142        0.0000000000000000     
  -2.2515103614593000E-002  -8.5997207385921870E-002   0.0000000000000000     
   7.1996502568465494E-003  -4.9286084685223483E-002   0.0000000000000000     
   0.0000000000000000        0.0000000000000000        0.0000000000000000     
  -1.2260707382388616E-003  -3.4947177876523759E-004   0.0000000000000000     
  -2.5199516326304254E-003  -9.3003423119003212E-004   0.0000000000000000     
  -3.8816426831746915E-003  -1.7416873572743835E-003   0.0000000000000000     
  -5.3111438898716607E-003  -2.7844311570182916E-003   0.0000000000000000     
   0.0000000000000000        0.0000000000000000        0.0000000000000000     
  -1.0929598312267841E-003  -1.8175941087769562E-004   0.0000000000000000     
  -2.2110045940897513E-003  -6.5666805886508144E-004   0.0000000000000000     
  -3.3541342885889014E-003  -1.4247259439621577E-003   0.0000000000000000     
  -4.5223489147242337E-003  -2.4859330661689246E-003   0.0000000000000000     
   0.0000000000000000        0.0000000000000000        0.0000000000000000     
  -9.3216163906879250E-004  -5.2192947699764521E-005   0.0000000000000000     
  -1.8692385908121393E-003  -4.3385885091971833E-004   0.0000000000000000     
  -2.8112308552300409E-003  -1.1449977096598615E-003   0.0000000000000000     
  -3.7581384323224971E-003  -2.1856095239201935E-003   0.0000000000000000     
   0.0000000000000000        0.0000000000000000        0.0000000000000000     
  -7.4367616176488629E-004   3.9227610768555600E-005   0.0000000000000000     
  -1.4946536227975896E-003  -2.6160660735394253E-004   0.0000000000000000     
  -2.2529323830981110E-003  -9.0250265436749445E-004   0.0000000000000000     
  -3.0185124426664487E-003  -1.8834605302721001E-003   0.0000000000000000     
   0.0000000000000000        0.0000000000000000        0.0000000000000000     
  -5.2750339931506541E-004   9.2502264527264774E-005   0.0000000000000000     
  -1.0872496900461023E-003  -1.3991132816775412E-004   0.0000000000000000     
  -1.6792388721931105E-003  -6.9724077808505679E-004   0.0000000000000000     
  -2.3034709457560899E-003  -1.5794860852246428E-003   0.0000000000000000     
  -5.3111438898716607E-003  -2.7844311570182916E-003   0.0000000000000000     
  -6.7845678737144576E-003  -4.0607208750231957E-003   0.0000000000000000     
  -8.2780272556962076E-003  -5.5730117558905343E-003   0.0000000000000000     
  -9.7915220358169141E-003  -7.3213037996203078E-003   0.0000000000000000     
  -1.1325052214076573E-002  -9.3055970062125154E-003   0.0000000000000000     
  -4.5223489147242337E-003  -2.4859330661689246E-003   0.0000000000000000     
  -5.7380793328727694E-003  -3.7759700207572024E-003   0.0000000000000000     
  -7.0237564034115263E-003  -5.2305174029988136E-003   0.0000000000000000     
  -8.3793801263405080E-003  -6.8495752128937566E-003   0.0000000000000000     
  -9.8049505016597101E-003  -8.6331434504420337E-003   0.0000000000000000     
  -3.7581384323224971E-003  -2.1856095239201935E-003   0.0000000000000000     
  -4.7500003816645072E-003  -3.4624640807803760E-003   0.0000000000000000     
  -5.8268557628310723E-003  -4.8823311673200703E-003   0.0000000000000000     
  -6.9887045758221938E-003  -6.4452107835392724E-003   0.0000000000000000     
  -8.2355468206378665E-003  -8.1511029294379870E-003   0.0000000000000000     
  -3.0185124426664487E-003  -1.8834605302721001E-003   0.0000000000000000     
  -3.8203310200896718E-003  -3.1202030550927162E-003   0.0000000000000000     
  -4.6873253339548447E-003  -4.5284530488543008E-003   0.0000000000000000     
  -5.6194953842619690E-003  -6.1082105115568535E-003   0.0000000000000000     
  -6.6168411710110430E-003  -7.8594754432003752E-003   0.0000000000000000     
  -2.3034709457560899E-003  -1.5794860852246428E-003   0.0000000000000000     
  -2.9490712481482608E-003  -2.7491869436942241E-003   0.0000000000000000     
  -3.6051651167828434E-003  -4.1688830476015104E-003   0.0000000000000000     
  -4.2717525516598361E-003  -5.8385743969465026E-003   0.0000000000000000     
  -4.9488335527792405E-003  -7.7582609917291991E-003   0.0000000000000000     
  -1.1325052214076573E-002  -9.3055970062125154E-003   0.0000000000000000     
  -1.2726823138463038E-002  -1.1371564161814405E-002   0.0000000000000000     