 <VTKFile type="UnstructuredGrid"  version="0.1"   >
 <UnstructuredGrid>
 <Piece  NumberOfPoints="          1600 "  NumberOfCells="         1024 ">
 <Points>
 <DataArray  type="Float64" NumberOfComponents="3"  format="ascii" >
   0.0000000000000000        0.0000000000000000        0.0000000000000000     
   3.1250000000000000E-002   0.0000000000000000        0.0000000000000000     
   6.2500000000000000E-002   0.0000000000000000        0.0000000000000000     
   9.3750000000000000E-002   0.0000000000000000        0.0000000000000000     
  0.12500000000000000        0.0000000000000000        0.0000000000000000     
   0.0000000000000000        3.1250000000000000E-002   0.0000000000000000     
   3.1250000000000000E-002   3.1250000000000000E-002   0.0000000000000000     
   6.2500000000000000E-002   3.1250000000000000E-002   0.0000000000000000     
   9.3750000000000000E-002   3.1250000000000000E-002   0.0000000000000000     
  0.12500000000000000        3.1250000000000000E-002   0.0000000000000000     
   0.0000000000000000        6.2500000000000000E-002   0.0000000000000000     
   3.1250000000000000E-002   6.2500000000000000E-002   0.0000000000000000     
   6.2500000000000000E-002   6.2500000000000000E-002   0.0000000000000000     
   9.3750000000000000E-002   6.2500000000000000E-002   0.0000000000000000     
  0.12500000000000000        6.2500000000000000E-002   0.0000000000000000     
   0.0000000000000000        9.3750000000000000E-002   0.0000000000000000     
   3.1250000000000000E-002   9.3750000000000000E-002   0.0000000000000000     
   6.2500000000000000E-002   9.3750000000000000E-002   0.0000000000000000     
   9.3750000000000000E-002   9.3750000000000000E-002   0.0000000000000000     
  0.12500000000000000        9.3750000000000000E-002   0.0000000000000000     
   0.0000000000000000       0.12500000000000000        0.0000000000000000     
   3.1250000000000000E-002  0.12500000000000000        0.0000000000000000     
   6.2500000000000000E-002  0.12500000000000000        0.0000000000000000     
   9.3750000000000000E-002  0.12500000000000000        0.0000000000000000     
  0.12500000000000000       0.12500000000000000        0.0000000000000000     
  0.12500000000000000        0.0000000000000000        0.0000000000000000     
  0.15625000000000000        0.0000000000000000        0.0000000000000000     
  0.18750000000000000        0.0000000000000000        0.0000000000000000     
  0.21875000000000000        0.0000000000000000        0.0000000000000000     
  0.25000000000000000        0.0000000000000000        0.0000000000000000     
  0.12500000000000000        3.1250000000000000E-002   0.0000000000000000     
  0.15625000000000000        3.1250000000000000E-002   0.0000000000000000     
  0.18750000000000000        3.1250000000000000E-002   0.0000000000000000     
  0.21875000000000000        3.1250000000000000E-002   0.0000000000000000     
  0.25000000000000000        3.1250000000000000E-002   0.0000000000000000     
  0.12500000000000000        6.2500000000000000E-002   0.0000000000000000     
  0.15625000000000000        6.2500000000000000E-002   0.0000000000000000     
  0.18750000000000000        6.2500000000000000E-002   0.0000000000000000     
  0.21875000000000000        6.2500000000000000E-002   0.0000000000000000     
  0.25000000000000000        6.2500000000000000E-002   0.0000000000000000     
  0.12500000000000000        9.3750000000000000E-002   0.0000000000000000     
  0.15625000000000000        9.3750000000000000E-002   0.0000000000000000     
  0.18750000000000000        9.3750000000000000E-002   0.0000000000000000     
  0.21875000000000000        9.3750000000000000E-002   0.0000000000000000     
  0.25000000000000000        9.3750000000000000E-002   0.0000000000000000     
  0.12500000000000000       0.12500000000000000        0.0000000000000000     
  0.15625000000000000       0.12500000000000000        0.0000000000000000     
  0.18750000000000000       0.12500000000000000        0.0000000000000000     
  0.21875000000000000       0.12500000000000000        0.0000000000000000     
  0.25000000000000000       0.12500000000000000        0.0000000000000000     
  0.25000000000000000        0.0000000000000000        0.0000000000000000     
  0.28125000000000000        0.0000000000000000        0.0000000000000000     
  0.31250000000000000        0.0000000000000000        0.0000000000000000     
  0.34375000000000000        0.0000000000000000        0.0000000000000000     
  0.37500000000000000        0.0000000000000000        0.0000000000000000     
  0.25000000000000000        3.1250000000000000E-002   0.0000000000000000     
  0.28125000000000000        3.1250000000000000E-002   0.0000000000000000     
  0.31250000000000000        3.1250000000000000E-002   0.0000000000000000     
  0.34375000000000000        3.1250000000000000E-002   0.0000000000000000     
  0.37500000000000000        3.1250000000000000E-002   0.0000000000000000     
  0.25000000000000000        6.2500000000000000E-002   0.0000000000000000     
  0.28125000000000000        6.2500000000000000E-002   0.0000000000000000     
  0.31250000000000000        6.2500000000000000E-002   0.0000000000000000     
  0.34375000000000000        6.2500000000000000E-002   0.0000000000000000     
  0.37500000000000000        6.2500000000000000E-002   0.0000000000000000     
  0.25000000000000000        9.3750000000000000E-002   0.0000000000000000     
  0.28125000000000000        9.3750000000000000E-002   0.0000000000000000     
  0.31250000000000000        9.3750000000000000E-002   0.0000000000000000     
  0.34375000000000000        9.3750000000000000E-002   0.0000000000000000     
  0.37500000000000000        9.3750000000000000E-002   0.0000000000000000     
  0.25000000000000000       0.12500000000000000        0.0000000000000000     
  0.28125000000000000       0.12500000000000000        0.0000000000000000     
  0.31250000000000000       0.12500000000000000        0.0000000000000000     
  0.34375000000000000       0.12500000000000000        0.0000000000000000     
  0.37500000000000000       0.12500000000000000        0.0000000000000000     
  0.37500000000000000        0.0000000000000000        0.0000000000000000     
  0.40625000000000000        0.0000000000000000        0.0000000000000000     
  0.43750000000000000        0.0000000000000000        0.0000000000000000     
  0.46875000000000000        0.0000000000000000        0.0000000000000000     
  0.50000000000000000        0.0000000000000000        0.0000000000000000     
  0.37500000000000000        3.1250000000000000E-002   0.0000000000000000     
  0.40625000000000000        3.1250000000000000E-002   0.0000000000000000     
  0.43750000000000000        3.1250000000000000E-002   0.0000000000000000     
  0.46875000000000000        3.1250000000000000E-002   0.0000000000000000     
  0.50000000000000000        3.1250000000000000E-002   0.0000000000000000     
  0.37500000000000000        6.2500000000000000E-002   0.0000000000000000     
  0.40625000000000000        6.2500000000000000E-002   0.0000000000000000     
  0.43750000000000000        6.2500000000000000E-002   0.0000000000000000     
  0.46875000000000000        6.2500000000000000E-002   0.0000000000000000     
  0.50000000000000000        6.2500000000000000E-002   0.0000000000000000     
  0.37500000000000000        9.3750000000000000E-002   0.0000000000000000     
  0.40625000000000000        9.3750000000000000E-002   0.0000000000000000     
  0.43750000000000000        9.3750000000000000E-002   0.0000000000000000     
  0.46875000000000000        9.3750000000000000E-002   0.0000000000000000     
  0.50000000000000000        9.3750000000000000E-002   0.0000000000000000     
  0.37500000000000000       0.12500000000000000        0.0000000000000000     
  0.40625000000000000       0.12500000000000000        0.0000000000000000     
  0.43750000000000000       0.12500000000000000        0.0000000000000000     
  0.46875000000000000       0.12500000000000000        0.0000000000000000     
  0.50000000000000000       0.12500000000000000        0.0000000000000000     
  0.50000000000000000        0.0000000000000000        0.0000000000000000     
  0.53125000000000000        0.0000000000000000        0.0000000000000000     
  0.56250000000000000        0.0000000000000000        0.0000000000000000     
  0.59375000000000000        0.0000000000000000        0.0000000000000000     
  0.62500000000000000        0.0000000000000000        0.0000000000000000     
  0.50000000000000000        3.1250000000000000E-002   0.0000000000000000     
  0.53125000000000000        3.1250000000000000E-002   0.0000000000000000     
  0.56250000000000000        3.1250000000000000E-002   0.0000000000000000     
  0.59375000000000000        3.1250000000000000E-002   0.0000000000000000     
  0.62500000000000000        3.1250000000000000E-002   0.0000000000000000     
  0.50000000000000000        6.2500000000000000E-002   0.0000000000000000     
  0.53125000000000000        6.2500000000000000E-002   0.0000000000000000     
  0.56250000000000000        6.2500000000000000E-002   0.0000000000000000     
  0.59375000000000000        6.2500000000000000E-002   0.0000000000000000     
  0.62500000000000000        6.2500000000000000E-002   0.0000000000000000     
  0.50000000000000000        9.3750000000000000E-002   0.0000000000000000     
  0.53125000000000000        9.3750000000000000E-002   0.0000000000000000     
  0.56250000000000000        9.3750000000000000E-002   0.0000000000000000     
  0.59375000000000000        9.3750000000000000E-002   0.0000000000000000     
  0.62500000000000000        9.3750000000000000E-002   0.0000000000000000     
  0.50000000000000000       0.12500000000000000        0.0000000000000000     
  0.53125000000000000       0.12500000000000000        0.0000000000000000     
  0.56250000000000000       0.12500000000000000        0.0000000000000000     
[...]
 <PointData>
 <DataArray  type="Float64" Name="disp" NumberOfComponents="3" format="ascii">
   0.0000000000000000        0.0000000000000000        0.0000000000000000     
 -0.11788537640179772       -9.7159195669591358E-002   0.0000000000000000     
 -0.21642424103665411      -0.19339742287799613        0.0000000000000000     
 -0.29561659390456912      -0.28871468162521430        0.0000000000000000     
 -0.35546243500554281      -0.38311097191124593        0.0000000000000000     
   0.0000000000000000        0.0000000000000000        0.0000000000000000     
  -8.3748736034962301E-002  -8.5814276594378971E-002   0.0000000000000000     
 -0.15741575171054928      -0.17533298236299377        0.0000000000000000     
 -0.22100104702676093      -0.26855611730584439        0.0000000000000000     
 -0.27450462198359726      -0.36548368142293086        0.0000000000000000     
   0.0000000000000000        0.0000000000000000        0.0000000000000000     
  -5.8165038269898772E-002  -7.8234359567283501E-002   0.0000000000000000     
 -0.11257655504278952      -0.16311648360016476        0.0000000000000000     
 -0.16323455031867221      -0.25464637209864366        0.0000000000000000     
 -0.21013902409754687      -0.35282402506272037        0.0000000000000000     
   0.0000000000000000        0.0000000000000000        0.0000000000000000     
  -4.1134283106607161E-002  -7.4419444588304962E-002   0.0000000000000000     
  -8.1906651033374828E-002 -0.15674792658950901        0.0000000000000000     
 -0.12231710378030296      -0.24698544600361219        0.0000000000000000     
 -0.16236564134739154      -0.34513200283061446        0.0000000000000000     
   0.0000000000000000        0.0000000000000000        0.0000000000000000     
  -3.2656470545087482E-002  -7.4369531657443311E-002   0.0000000000000000     
  -6.5406039682305211E-002 -0.15622731133102660        0.0000000000000000     
  -9.8248707411653174E-002 -0.24557333902074985        0.0000000000000000     
 -0.13118447373313138      -0.34240761472661307        0.0000000000000000     
 -0.35546243500554281      -0.38311097191124593        0.0000000000000000     
 -0.40183282720959829      -0.47656972275100901        0.0000000000000000     
 -0.44059883338675870      -0.56907436315942139        0.0000000000000000     
 -0.47176045353702412      -0.66062489313648354        0.0000000000000000     
 -0.49531768766039452      -0.75122131268219494        0.0000000000000000     
 -0.27450462198359726      -0.36548368142293086        0.0000000000000000     
 -0.31953970031498752      -0.46329190019881905        0.0000000000000000     
 -0.35771950575486089      -0.55915699911807482        0.0000000000000000     
 -0.38904403830321727      -0.65307897818069827        0.0000000000000000     
 -0.41351329796005676      -0.74505783738668929        0.0000000000000000     
 -0.21013902409754687      -0.35282402506272037        0.0000000000000000     
 -0.25219802356981535      -0.45314001153188932        0.0000000000000000     
 -0.28831959592587952      -0.55108490054564507        0.0000000000000000     
 -0.31850374116573937      -0.64665869210398774        0.0000000000000000     
 -0.34275045928939490      -0.73986138620691744        0.0000000000000000     
 -0.16236564134739154      -0.34513200283061446        0.0000000000000000     
 -0.19980779697408180      -0.44611405675021981        0.0000000000000000     
 -0.23239910389981475      -0.54485806744213239        0.0000000000000000     
 -0.26013956212459044      -0.64136403490635230        0.0000000000000000     
 -0.28302917164840885      -0.73563195914287915        0.0000000000000000     
 -0.13118447373313138      -0.34240761472661307        0.0000000000000000     
 -0.16236902052778684      -0.44221403585381058        0.0000000000000000     
 -0.18995802967666653      -0.54047649980753665        0.0000000000000000     
 -0.21395150117977049      -0.63719500658779149        0.0000000000000000     
 -0.23434943503709865      -0.73236955619457478        0.0000000000000000     
 -0.49531768766039452      -0.75122131268219494        0.0000000000000000     
 -0.51285615479207758      -0.83991256621535615        0.0000000000000000     
 -0.52596147396728099      -0.92574759815476759        0.0000000000000000     
 -0.53463364518600498       -1.0087264085004293        0.0000000000000000     
 -0.53887266844824933       -1.0888489972523410        0.0000000000000000     
 -0.41351329796005676      -0.74505783738668929        0.0000000000000000     
 -0.43246773419683293      -0.83470159337690930        0.0000000000000000     
 -0.44724779648499896      -0.92161826279221959        0.0000000000000000     
 -0.45785348482455507       -1.0058078456326203        0.0000000000000000     
 -0.46428479921550125       -1.0872703418981113        0.0000000000000000     
 -0.34275045928939490      -0.73986138620691744        0.0000000000000000     
 -0.36210414438760619      -0.83052667544133318        0.0000000000000000     
 -0.37760919055113329      -0.91848825239413434        0.0000000000000000     
 -0.38926559777997610       -1.0037461170653212        0.0000000000000000     
 -0.39707336607413479       -1.0863002694548936        0.0000000000000000     
 -0.28302917164840885      -0.73563195914287915        0.0000000000000000     
 -0.30176538536439751      -0.82738781240862769        0.0000000000000000     
 -0.31704565616568392      -0.91635756696051196        0.0000000000000000     
 -0.32886998405226808       -1.0025412227985320        0.0000000000000000     
 -0.33723836902414994       -1.0859387799226881        0.0000000000000000     
 -0.23434943503709865      -0.73236955619457478        0.0000000000000000     
 -0.25145145712720685      -0.82528500427879292        0.0000000000000000     
 -0.26555719332865096      -0.91522620649135222        0.0000000000000000     
 -0.27666664364143095       -1.0021931628322527        0.0000000000000000     
 -0.28477980806554681       -1.0861858733014942        0.0000000000000000     
 -0.53887266844824933       -1.0888489972523410        0.0000000000000000     
 -0.53952729741078276       -1.1659863732535780        0.0000000000000000     
 -0.53744628573037379       -1.2400095453472149        0.0000000000000000     
 -0.53262963340702252       -1.3109185135332522        0.0000000000000000     
 -0.52507734044072896       -1.3787132778116895        0.0000000000000000     
 -0.46428479921550125       -1.0872703418981113        0.0000000000000000     
 -0.46732970927979745       -1.1656861475184306        0.0000000000000000     
 -0.46777618463940379       -1.2407356584233156        0.0000000000000000     
 -0.46562422529432029       -1.3124188746127667        0.0000000000000000     
 -0.46087383124454689       -1.3807357960867837        0.0000000000000000     
 -0.39707336607413479       -1.0863002694548936        0.0000000000000000     
 -0.40175403182719044       -1.1657185411756386        0.0000000000000000     
 -0.40402913143272429       -1.2415687638403428        0.0000000000000000     
 -0.40389866489073634       -1.3138509374490062        0.0000000000000000     
 -0.40136263220122670       -1.3825650620016292        0.0000000000000000     
 -0.33723836902414994       -1.0859387799226881        0.0000000000000000     
 -0.34280026505296163       -1.1660835542252019        0.0000000000000000     
 -0.34620512611033527       -1.2425088615982964        0.0000000000000000     
 -0.34745295219627081       -1.3152147020419709        0.0000000000000000     
 -0.34654374331076826       -1.3842010755562266        0.0000000000000000     
 -0.28477980806554681       -1.0861858733014942        0.0000000000000000     
 -0.29046840895711112       -1.1667811866671207        0.0000000000000000     
 -0.29430416867223674       -1.2435559516971768        0.0000000000000000     
 -0.29628708721092351       -1.3165101683916614        0.0000000000000000     
 -0.29641716457317158       -1.3856438367505755        0.0000000000000000     
 -0.52507734044072896       -1.3787132778116895        0.0000000000000000     
 -0.51546227007473278       -1.4432328521910291        0.0000000000000000     
 -0.50445728555227398       -1.5043162506797736        0.0000000000000000     
 -0.49206238687335252       -1.5619634732779226        0.0000000000000000     
 -0.47827757403796844       -1.6161745199854765        0.0000000000000000     
 -0.46087383124454689       -1.3807357960867837        0.0000000000000000     
 -0.45414857752942123       -1.4456461815100221        0.0000000000000000     
 -0.44607203918828103       -1.5071097895471381        0.0000000000000000     
 -0.43664421622112609       -1.5651266201981309        0.0000000000000000     
 -0.42586510862795646       -1.6196966734630012        0.0000000000000000     
 -0.40136263220122670       -1.3825650620016292        0.0000000000000000     
 -0.39698087033457657       -1.4477628746719544        0.0000000000000000     
 -0.39131321626116738       -1.5094961126337241        0.0000000000000000     
 -0.38435966998099924       -1.5677647758869391        0.0000000000000000     
 -0.37612023149407192       -1.6225688644315981        0.0000000000000000     
 -0.34654374331076826       -1.3842010755562266        0.0000000000000000     
 -0.34395914849019865       -1.4495829316768258        0.0000000000000000     
 -0.34018081677093320       -1.5114752199395327        0.0000000000000000     
 -0.33520874815297175       -1.5698779403443468        0.0000000000000000     
 -0.32904294263631456       -1.6247910928912681        0.0000000000000000     
 -0.29641716457317158       -1.3856438367505755        0.0000000000000000     
 -0.29508341199628757       -1.4511063525246364        0.0000000000000000     
 -0.29267484071757838       -1.5130471114645629        0.0000000000000000     
 -0.28919145073704400       -1.5714661135703543        0.0000000000000000     
 -0.28463324205468443       -1.6263633588420106        0.0000000000000000     
 -0.47827757403796844       -1.6161745199854765        0.0000000000000000     
 -0.46379388764254242       -1.6671065425805929        0.0000000000000000     
 -0.44930236828349529       -1.7149166928414297        0.0000000000000000     
 -0.43480301596082710       -1.7596049707679877        0.0000000000000000     
 -0.42029583067453768       -1.8011713763602666        0.0000000000000000     
 -0.42586510862795646       -1.6196966734630012        0.0000000000000000     
 -0.41433511906233766       -1.6709154137030520        0.0000000000000000     
 -0.40265465017783469       -1.7188783052795882        0.0000000000000000     
 -0.39082370197444766       -1.7635853481926094        0.0000000000000000     
 -0.37884227445217655       -1.8050365424421158        0.0000000000000000     
 -0.37612023149407192       -1.6225688644315981        0.0000000000000000     
 -0.36714115487129584       -1.6739809138003077        0.0000000000000000     
 -0.35796869418358135       -1.7220734595256730        0.0000000000000000     
 -0.34860284943092829       -1.7668465016076949        0.0000000000000000     
 -0.33904362061333676       -1.8083000400463727        0.0000000000000000     
 -0.32904294263631456       -1.6247910928912681        0.0000000000000000     
 -0.32221199506941706       -1.6763030428723600        0.0000000000000000     
 -0.31524450030073520       -1.7245021555796853        0.0000000000000000     
 -0.30814045833026882       -1.7693884310132442        0.0000000000000000     
 -0.30089986915801814       -1.8109618691730367        0.0000000000000000     
 -0.28463324205468443       -1.6263633588420106        0.0000000000000000     
 -0.27954763965670132       -1.6778818009192087        0.0000000000000000     
 -0.27448206852929635       -1.7261643934416242        0.0000000000000000     
 -0.26943652867246948       -1.7712111364092571        0.0000000000000000     
 -0.26441102008622075       -1.8130220298221082        0.0000000000000000     
 -0.42029583067453768       -1.8011713763602666        0.0000000000000000     
 -0.40618839028100906       -1.8400195080243285        0.0000000000000000     
 -0.39288827263662340       -1.8765529641662357        0.0000000000000000     
 -0.38039547774138038       -1.9107717447859882        0.0000000000000000     
 -0.36871000559528022       -1.9426758498835861        0.0000000000000000     
 -0.37884227445217655       -1.8050365424421158        0.0000000000000000     
 -0.36707184349437738       -1.8437220824358427        0.0000000000000000     
 -0.35587388498440603       -1.8801321625815248        0.0000000000000000     
 -0.34524839892226244       -1.9142667828791626        0.0000000000000000     
 -0.33519538530794668       -1.9461259433287554        0.0000000000000000     
 -0.33904362061333676       -1.8083000400463727        0.0000000000000000     
 -0.32956782516405331       -1.8469917567233585        0.0000000000000000     
 -0.32045228051632457       -1.8834793335203037        0.0000000000000000     
 -0.31169698667015056       -1.9177627704372096        0.0000000000000000     
 -0.30330194362553120       -1.9498420674740753        0.0000000000000000     
 -0.30089986915801814       -1.8109618691730367        0.0000000000000000     
 -0.29367633529003684       -1.8498285308868754        0.0000000000000000     
 -0.28662345923237914       -1.8865944769825731        0.0000000000000000     
 -0.27974124098504471       -1.9212597074601299        0.0000000000000000     
 -0.27302968054803389       -1.9538242223195454        0.0000000000000000     
 -0.26441102008622075       -1.8130220298221082        0.0000000000000000     
 -0.25939737387232814       -1.8522324049263941        0.0000000000000000     
 -0.25438742113256957       -1.8894775929683323        0.0000000000000000     
 -0.24938116186694509       -1.9247575939479231        0.0000000000000000     
 -0.24437859607545459       -1.9580724078651663        0.0000000000000000     
 -0.36871000559528022       -1.9426758498835861        0.0000000000000000     
 -0.35830619976629008       -1.9732393281792717        0.0000000000000000     
 -0.34965840382237728       -2.0034362283932867        0.0000000000000000     
 -0.34276661776354184       -2.0332665505256315        0.0000000000000000     
 -0.33763084158978368       -2.0627302945763057        0.0000000000000000     
 -0.33519538530794668       -1.9461259433287554        0.0000000000000000     
 -0.32585547983709318       -1.9763418600082598        0.0000000000000000     
 -0.31736931820533654       -2.0055467489956302        0.0000000000000000     
 -0.30973690041267665       -2.0337406102908675        0.0000000000000000     
 -0.30295822645911347       -2.0609234438939708        0.0000000000000000     
 -0.30330194362553120       -1.9498420674740753        0.0000000000000000     
 -0.29522593850950590       -1.9801224131645823        0.0000000000000000     
 -0.28742775844911395       -2.0090089960424109        0.0000000000000000     
 -0.27990740344435538       -2.0365018161075610        0.0000000000000000     
 -0.27266487349523011       -2.0626008733600338        0.0000000000000000     
 -0.27302968054803389       -1.9538242223195454        0.0000000000000000     
 -0.26641757578352826       -1.9845809876482388        0.0000000000000000     
 -0.25983372455370962       -2.0138229695336283        0.0000000000000000     
 -0.25327812685857809       -2.0415501679757129        0.0000000000000000     
 -0.24675078269813361       -2.0677625829744946        0.0000000000000000     
 -0.24437859607545459       -1.9580724078651663        0.0000000000000000     
 -0.23943039165916011       -1.9897175834592298        0.0000000000000000     
 -0.23458721651912348       -2.0199886694692819        0.0000000000000000     
 -0.22984907065534477       -2.0488856658953236        0.0000000000000000     
 -0.22521595406782394       -2.0764085727373534        0.0000000000000000     
   0.0000000000000000        0.0000000000000000        0.0000000000000000     
  -3.2656470545087482E-002  -7.4369531657443311E-002   0.0000000000000000     
  -6.5406039682305211E-002 -0.15622731133102660        0.0000000000000000     
  -9.8248707411653174E-002 -0.24557333902074985        0.0000000000000000     
 -0.13118447373313138      -0.34240761472661307        0.0000000000000000     
   0.0000000000000000        0.0000000000000000        0.0000000000000000     
  -2.8645374056890160E-002  -7.6317999952585480E-002   0.0000000000000000     
  -5.6498159773860496E-002 -0.15893468970383043        0.0000000000000000     
  -8.3558357150910964E-002 -0.24785006925373479        0.0000000000000000     
 -0.10982596618804162      -0.34306413860229867        0.0000000000000000     
   0.0000000000000000        0.0000000000000000        0.0000000000000000     
  -2.5014767113565678E-002  -7.8498228651618290E-002   0.0000000000000000     
  -4.8606450092320515E-002 -0.16225011358703334        0.0000000000000000     
  -7.0775048936264490E-002 -0.25125565480624507        0.0000000000000000     
  -9.1520563645397637E-002 -0.34551485230925361        0.0000000000000000     
   0.0000000000000000        0.0000000000000000        0.0000000000000000     
  -2.1764649715114028E-002  -8.0910217754541811E-002   0.0000000000000000     
  -4.1730910637685269E-002 -0.16617358298063536        0.0000000000000000     
  -5.9898782767713724E-002 -0.25579009567828065        0.0000000000000000     
  -7.6268266105199406E-002 -0.34975975584747776        0.0000000000000000     
   0.0000000000000000        0.0000000000000000        0.0000000000000000     
  -1.8895021861535206E-002  -8.3553967261355971E-002   0.0000000000000000     
  -3.5871541409954771E-002 -0.17070509788463650        0.0000000000000000     
  -5.0929558645258680E-002 -0.26145339186984157        0.0000000000000000     
  -6.4069073567446955E-002 -0.35579884921697125        0.0000000000000000     
 -0.13118447373313138      -0.34240761472661307        0.0000000000000000     
 -0.16236902052778684      -0.44221403585381058        0.0000000000000000     
 -0.18995802967666653      -0.54047649980753665        0.0000000000000000     
 -0.21395150117977049      -0.63719500658779149        0.0000000000000000     
 -0.23434943503709865      -0.73236955619457478        0.0000000000000000     
 -0.10982596618804162      -0.34306413860229867        0.0000000000000000     
 -0.13449056697740477      -0.44108015632575215        0.0000000000000000     
 -0.15674173961115270      -0.53840138100032542        0.0000000000000000     
 -0.17657948408928548      -0.63502781262601848        0.0000000000000000     
 -0.19400380041180310      -0.73095945120283135        0.0000000000000000     
  -9.1520563645397637E-002 -0.34551485230925361        0.0000000000000000     
 -0.11078130906940989      -0.44235262564913508        0.0000000000000000     
 -0.12849560005799121      -0.53909389437896593        0.0000000000000000     
 -0.14466343661114162      -0.63573865849874633        0.0000000000000000     
 -0.15928481872886108      -0.73228691800847601        0.0000000000000000     
  -7.6268266105199406E-002 -0.34975975584747776        0.0000000000000000     
  -9.1241246803802217E-002 -0.44603144382395932        0.0000000000000000     
 -0.10521961101718198      -0.54255403994345841        0.0000000000000000     
 -0.11820335874533879      -0.63932754420597504        0.0000000000000000     
 -0.13019248998827257      -0.73635195661150876        0.0000000000000000     
  -6.4069073567446955E-002 -0.35579884921697125        0.0000000000000000     
  -7.5870380180581704E-002 -0.45211661085022503        0.0000000000000000     
  -8.6913772488725061E-002 -0.54878181769380274        0.0000000000000000     
  -9.7199250491877026E-002 -0.64579446974770449        0.0000000000000000     
 -0.10672681419003760      -0.74315456701192995        0.0000000000000000     
 -0.23434943503709865      -0.73236955619457478        0.0000000000000000     
 -0.25145145712720685      -0.82528500427879292        0.0000000000000000     