 <VTKFile type="UnstructuredGrid"  version="0.1"   >
 <UnstructuredGrid>
 <Piece  NumberOfPoints="          1600 "  NumberOfCells="         1024 ">
 <Points>
 <DataArray  type="Float64" NumberOfComponents="3"  format="ascii" >
   0.0000000000000000        0.0000000000000000        0.0000000000000000     
   3.1250000000000000E-002   0.0000000000000000        0.0000000000000000     
   6.2500000000000000E-002   0.0000000000000000        0.0000000000000000     
   9.3750000000000000E-002   0.0000000000000000        0.0000000000000000     
  0.12500000000000000        0.0000000000000000        0.0000000000000000     
   0.0000000000000000        3.1250000000000000E-002   0.0000000000000000     
   3.1250000000000000E-002   3.1250000000000000E-002   0.0000000000000000     
   6.2500000000000000E-002   3.1250000000000000E-002   0.0000000000000000     
   9.3750000000000000E-002   3.1250000000000000E-002   0.0000000000000000     
  0.12500000000000000        3.1250000000000000E-002   0.0000000000000000     
   0.0000000000000000        6.2500000000000000E-002   0.0000000000000000     
   3.1250000000000000E-002   6.2500000000000000E-002   0.0000000000000000     
   6.2500000000000000E-002   6.2500000000000000E-002   0.0000000000000000     
   9.3750000000000000E-002   6.2500000000000000E-002   0.0000000000000000     
  0.12500000000000000        6.2500000000000000E-002   0.0000000000000000     
   0.0000000000000000        9.3750000000000000E-002   0.0000000000000000     
   3.1250000000000000E-002   9.3750000000000000E-002   0.0000000000000000     
   6.2500000000000000E-002   9.3750000000000000E-002   0.0000000000000000     
   9.3750000000000000E-002   9.3750000000000000E-002   0.0000000000000000     
  0.12500000000000000        9.3750000000000000E-002   0.0000000000000000     
   0.0000000000000000       0.12500000000000000        0.0000000000000000     
   3.1250000000000000E-002  0.12500000000000000        0.0000000000000000     
   6.2500000000000000E-002  0.12500000000000000        0.0000000000000000     
   9.3750000000000000E-002  0.12500000000000000        0.0000000000000000     
  0.12500000000000000       0.12500000000000000        0.0000000000000000     
  0.12500000000000000        0.0000000000000000        0.0000000000000000     
  0.15625000000000000        0.0000000000000000        0.0000000000000000     
  0.18750000000000000        0.0000000000000000        0.0000000000000000     
  0.21875000000000000        0.0000000000000000        0.0000000000000000     
  0.25000000000000000        0.0000000000000000        0.0000000000000000     
  0.12500000000000000        3.1250000000000000E-002   0.0000000000000000     
  0.15625000000000000        3.1250000000000000E-002   0.0000000000000000     
  0.18750000000000000        3.1250000000000000E-002   0.0000000000000000     
  0.21875000000000000        3.1250000000000000E-002   0.0000000000000000     
  0.25000000000000000        3.1250000000000000E-002   0.0000000000000000     
  0.12500000000000000        6.2500000000000000E-002   0.0000000000000000     
  0.15625000000000000        6.2500000000000000E-002   0.0000000000000000     
  0.18750000000000000        6.2500000000000000E-002   0.0000000000000000     
  0.21875000000000000        6.2500000000000000E-002   0.0000000000000000     
  0.25000000000000000        6.2500000000000000E-002   0.0000000000000000     
  0.12500000000000000        9.3750000000000000E-002   0.0000000000000000     
  0.15625000000000000        9.3750000000000000E-002   0.0000000000000000     
  0.18750000000000000        9.3750000000000000E-002   0.0000000000000000     
  0.21875000000000000        9.3750000000000000E-002   0.0000000000000000     
  0.25000000000000000        9.3750000000000000E-002   0.0000000000000000     
  0.12500000000000000       0.12500000000000000        0.0000000000000000     
  0.15625000000000000       0.12500000000000000        0.0000000000000000     
  0.18750000000000000       0.12500000000000000        0.0000000000000000     
  0.21875000000000000       0.12500000000000000        0.0000000000000000     
  0.25000000000000000       0.12500000000000000        0.0000000000000000     
  0.25000000000000000        0.0000000000000000        0.0000000000000000     
  0.28125000000000000        0.0000000000000000        0.0000000000000000     
  0.31250000000000000        0.0000000000000000        0.0000000000000000     
  0.34375000000000000        0.0000000000000000        0.0000000000000000     
  0.37500000000000000        0.0000000000000000        0.0000000000000000     
  0.25000000000000000        3.1250000000000000E-002   0.0000000000000000     
  0.28125000000000000        3.1250000000000000E-002   0.0000000000000000     
  0.31250000000000000        3.1250000000000000E-002   0.0000000000000000     
  0.34375000000000000        3.1250000000000000E-002   0.0000000000000000     
  0.37500000000000000        3.1250000000000000E-002   0.0000000000000000     
  0.25000000000000000        6.2500000000000000E-002   0.0000000000000000     
  0.28125000000000000        6.2500000000000000E-002   0.0000000000000000     
  0.31250000000000000        6.2500000000000000E-002   0.0000000000000000     
  0.34375000000000000        6.2500000000000000E-002   0.0000000000000000     
  0.37500000000000000        6.2500000000000000E-002   0.0000000000000000     
  0.25000000000000000        9.3750000000000000E-002   0.0000000000000000     
  0.28125000000000000        9.3750000000000000E-002   0.0000000000000000     
  0.31250000000000000        9.3750000000000000E-002   0.0000000000000000     
  0.34375000000000000        9.3750000000000000E-002   0.0000000000000000     
  0.37500000000000000        9.3750000000000000E-002   0.0000000000000000     
  0.25000000000000000       0.12500000000000000        0.0000000000000000     
  0.28125000000000000       0.12500000000000000        0.0000000000000000     
  0.31250000000000000       0.12500000000000000        0.0000000000000000     
  0.34375000000000000       0.12500000000000000        0.0000000000000000     
  0.37500000000000000       0.12500000000000000        0.0000000000000000     
  0.37500000000000000        0.0000000000000000        0.0000000000000000     
  0.40625000000000000        0.0000000000000000        0.0000000000000000     
  0.43750000000000000        0.0000000000000000        0.0000000000000000     
  0.46875000000000000        0.0000000000000000        0.0000000000000000     
  0.50000000000000000        0.0000000000000000        0.0000000000000000     
  0.37500000000000000        3.1250000000000000E-002   0.0000000000000000     
  0.40625000000000000        3.1250000000000000E-002   0.0000000000000000     
  0.43750000000000000        3.1250000000000000E-002   0.0000000000000000     
  0.46875000000000000        3.1250000000000000E-002   0.0000000000000000     
  0.50000000000000000        3.1250000000000000E-002   0.0000000000000000     
  0.37500000000000000        6.2500000000000000E-002   0.0000000000000000     
  0.40625000000000000        6.2500000000000000E-002   0.0000000000000000     
  0.43750000000000000        6.2500000000000000E-002   0.0000000000000000     
  0.46875000000000000        6.2500000000000000E-002   0.0000000000000000     
  0.50000000000000000        6.2500000000000000E-002   0.0000000000000000     
  0.37500000000000000        9.3750000000000000E-002   0.0000000000000000     
  0.40625000000000000        9.3750000000000000E-002   0.0000000000000000     
  0.43750000000000000        9.3750000000000000E-002   0.0000000000000000     
  0.46875000000000000        9.3750000000000000E-002   0.0000000000000000     
  0.50000000000000000        9.3750000000000000E-002   0.0000000000000000     
  0.37500000000000000       0.12500000000000000        0.0000000000000000     
  0.40625000000000000       0.12500000000000000        0.0000000000000000     
  0.43750000000000000       0.12500000000000000        0.0000000000000000     
  0.46875000000000000       0.12500000000000000        0.0000000000000000     
  0.50000000000000000       0.12500000000000000        0.0000000000000000     
  0.50000000000000000        0.0000000000000000        0.0000000000000000     
  0.53125000000000000        0.0000000000000000        0.0000000000000000     
  0.56250000000000000        0.0000000000000000        0.0000000000000000     
  0.59375000000000000        0.0000000000000000        0.0000000000000000     
  0.62500000000000000        0.0000000000000000        0.0000000000000000     
  0.50000000000000000        3.1250000000000000E-002   0.0000000000000000     
  0.53125000000000000        3.1250000000000000E-002   0.0000000000000000     
  0.56250000000000000        3.1250000000000000E-002   0.0000000000000000     
  0.59375000000000000        3.1250000000000000E-002   0.0000000000000000     
  0.62500000000000000        3.1250000000000000E-002   0.0000000000000000     
  0.50000000000000000        6.2500000000000000E-002   0.0000000000000000     
  0.53125000000000000        6.2500000000000000E-002   0.0000000000000000     
  0.56250000000000000        6.2500000000000000E-002   0.0000000000000000     
  0.59375000000000000        6.2500000000000000E-002   0.0000000000000000     
  0.62500000000000000        6.2500000000000000E-002   0.0000000000000000     
  0.50000000000000000        9.3750000000000000E-002   0.0000000000000000     
  0.53125000000000000        9.3750000000000000E-002   0.0000000000000000     
  0.56250000000000000        9.3750000000000000E-002   0.0000000000000000     
  0.59375000000000000        9.3750000000000000E-002   0.0000000000000000     
  0.62500000000000000        9.3750000000000000E-002   0.0000000000000000     
  0.50000000000000000       0.12500000000000000        0.0000000000000000     
  0.53125000000000000       0.12500000000000000        0.0000000000000000     
  0.56250000000000000       0.12500000000000000        0.0000000000000000     
[...]
 <PointData>
 <DataArray  type="Float64" Name="disp" NumberOfComponents="3" format="ascii">
   0.0000000000000000        0.0000000000000000        0.0000000000000000     
   2.5603784915062430E-002   1.6534918884898591E-002   0.0000000000000000     
   4.6165702465781888E-002   2.6085212071030216E-002   0.0000000000000000     
   6.1685752652158379E-002   2.8650879558394876E-002   0.0000000000000000     
   7.2163935474191893E-002   2.4231921346992570E-002   0.0000000000000000     
   0.0000000000000000        0.0000000000000000        0.0000000000000000     
   1.8232616907175085E-002   7.3374456285687272E-003   0.0000000000000000     
   3.6087010296604105E-002   1.3761672007360903E-002   0.0000000000000000     
   5.3563180168287039E-002   1.9272679136376526E-002   0.0000000000000000     
   7.0661126522223894E-002   2.3870467015615598E-002   0.0000000000000000     
   0.0000000000000000        0.0000000000000000        0.0000000000000000     
   1.3317340154171037E-002   1.1549595711920543E-003   0.0000000000000000     
   2.8941723349298759E-002   4.9003915200564931E-003   0.0000000000000000     
   4.6873149585383161E-002   1.1236295846593318E-002   0.0000000000000000     
   6.7111618862424255E-002   2.0162672550802532E-002   0.0000000000000000     
   0.0000000000000000        0.0000000000000000        0.0000000000000000     
   1.0857954656050273E-002  -2.0125392872314260E-003   0.0000000000000000     
   2.4729841623865857E-002  -4.9862939088300695E-004   0.0000000000000000     
   4.1615660903446754E-002   4.5417296890452579E-003   0.0000000000000000     
   6.1515412494792962E-002   1.3108537952553369E-002   0.0000000000000000     
   0.0000000000000000        0.0000000000000000        0.0000000000000000     
   1.0854460412812798E-002  -2.1650509467017135E-003   0.0000000000000000     
   2.3451365120305403E-002  -2.4353907254575989E-003   0.0000000000000000     
   3.7790714122477809E-002  -8.1101933626765658E-004   0.0000000000000000     
   5.3872507419330029E-002   2.7080632208681147E-003   0.0000000000000000     
   7.2163935474191893E-002   2.4231921346992570E-002   0.0000000000000000     
   8.3573502447006801E-002   2.3780049126133511E-002   0.0000000000000000     
  0.10188770508572743        3.8246974585127928E-002   0.0000000000000000     
  0.12710654339035382        6.7632697723975801E-002   0.0000000000000000     
  0.15923001736088593       0.11193721854267716        0.0000000000000000     
   7.0661126522223894E-002   2.3870467015615598E-002   0.0000000000000000     
   8.6469844633776952E-002   3.1643526665544271E-002   0.0000000000000000     
  0.10007832977830843        4.6680349106628695E-002   0.0000000000000000     
  0.11148658195581838        6.8980934338868899E-002   0.0000000000000000     
  0.12069460116630673        9.8545282362264841E-002   0.0000000000000000     
   6.7111618862424255E-002   2.0162672550802532E-002   0.0000000000000000     
   8.5340239198001336E-002   3.2149705856874634E-002   0.0000000000000000     
   9.7242118609693798E-002   4.7667579989000147E-002   0.0000000000000000     
  0.10281725709750154        6.6716294947179067E-002   0.0000000000000000     
  0.10206565466142466        8.9295850731411358E-002   0.0000000000000000     
   6.1515412494792962E-002   1.3108537952553369E-002   0.0000000000000000     
   8.0184686139680036E-002   2.5298586700124609E-002   0.0000000000000000     
   9.3379071579883524E-002   4.1208667232242258E-002   0.0000000000000000     
  0.10109856881540341        6.0838779548906291E-002   0.0000000000000000     
  0.10334317784623968        8.4188923650116751E-002   0.0000000000000000     
   5.3872507419330029E-002   2.7080632208681147E-003   0.0000000000000000     
   7.1003185458812984E-002   1.1090169195294186E-002   0.0000000000000000     
   8.8489188688877618E-002   2.7303610836355019E-002   0.0000000000000000     
  0.10633051710952389        5.1348388144050620E-002   0.0000000000000000     
  0.12452717072075187        8.3224501118380992E-002   0.0000000000000000     
  0.15923001736088593       0.11193721854267716        0.0000000000000000     
  0.17884859846336454       0.15472800207458640        0.0000000000000000     
  0.16655275816383039       0.17957251335305791        0.0000000000000000     
  0.12234249646228348       0.18647075237809169        0.0000000000000000     
   4.6217813358723811E-002  0.17542271914968774        0.0000000000000000     
  0.12069460116630673        9.8545282362264841E-002   0.0000000000000000     
  0.12752896247403273       0.12794413983226574        0.0000000000000000     
  0.13181624094325553       0.14974825340432074        0.0000000000000000     
  0.13355643657397509       0.16395762307842993        0.0000000000000000     
  0.13274954936619152       0.17057224885459321        0.0000000000000000     
  0.10206565466142466        8.9295850731411358E-002   0.0000000000000000     
  0.10345324915082948       0.11310600791172565        0.0000000000000000     
  0.11544597841508247       0.13584652705815045        0.0000000000000000     
  0.13804384245418364       0.15751740817068577        0.0000000000000000     
  0.17124684126813286       0.17811865124933163        0.0000000000000000     
  0.10334317784623968        8.4188923650116751E-002   0.0000000000000000     
  0.10662145849375484       0.11021360631296613        0.0000000000000000     
  0.11744197057931124       0.13786733431454695        0.0000000000000000     
  0.13580471410290895       0.16715010765485924        0.0000000000000000     
  0.16170968906454788       0.19806192633390304        0.0000000000000000     
  0.12452717072075187        8.3224501118380992E-002   0.0000000000000000     
  0.13703359050280875       0.11926693503598720        0.0000000000000000     
  0.13780421743594182       0.15581067517351035        0.0000000000000000     
  0.12683905152015112       0.19285572153095040        0.0000000000000000     
  0.10413809275543658       0.23040207410830735        0.0000000000000000     
   4.6217813358723811E-002  0.17542271914968774        0.0000000000000000     
  -3.2898842444267967E-002  0.15113007394339145        0.0000000000000000     
  -8.6085022244111228E-002  0.11829447703474813        0.0000000000000000     
 -0.11334072604080596        7.6915928423757815E-002   0.0000000000000000     
 -0.11466595383435217        2.6994428110420486E-002   0.0000000000000000     
  0.13274954936619152       0.17057224885459321        0.0000000000000000     
  0.12408640080280160       0.16459830681592860        0.0000000000000000     
  0.10225781236670231       0.14104197304555405        0.0000000000000000     
   6.7263784057893614E-002   9.9903247543469575E-002   0.0000000000000000     
   1.9104315876375517E-002   4.1182130309675186E-002   0.0000000000000000     
  0.17124684126813286       0.17811865124933163        0.0000000000000000     
  0.19465218336107704       0.18579022495017741        0.0000000000000000     
  0.18785707723716272       0.16867209792931259        0.0000000000000000     
  0.15086152289639004       0.12676427018673711        0.0000000000000000     
   8.3665520338758931E-002   6.0066741722450953E-002   0.0000000000000000     
  0.16170968906454788       0.19806192633390304        0.0000000000000000     
  0.17879850523055824       0.21470582834613791        0.0000000000000000     
  0.17071277236727003       0.20118485168602368        0.0000000000000000     
  0.13745249047468336       0.15749899635356032        0.0000000000000000     
   7.9017659552798131E-002   8.3648262348747865E-002   0.0000000000000000     
  0.10413809275543658       0.23040207410830735        0.0000000000000000     
   7.6525366411245258E-002  0.25134511700381007        0.0000000000000000     
   5.0824897757024236E-002  0.23858023431568740        0.0000000000000000     
   2.7036686792773500E-002  0.19210742604393929        0.0000000000000000     
   5.1607335184930547E-003  0.11192669218856582        0.0000000000000000     
 -0.11466595383435217        2.6994428110420486E-002   0.0000000000000000     
 -0.10141335757475245       -1.7242030016867166E-002   0.0000000000000000     
  -8.4935589212009388E-002  -4.1565452069708464E-002   0.0000000000000000     
  -6.5232648746122932E-002  -4.5975838048103429E-002   0.0000000000000000     
  -4.2304536177093170E-002  -3.0473187952052040E-002   0.0000000000000000     
   1.9104315876375517E-002   4.1182130309675186E-002   0.0000000000000000     
  -2.5919079656254410E-002  -1.4622427051256812E-002   0.0000000000000000     
  -5.1504890018398565E-002  -4.7011472934754044E-002   0.0000000000000000     
  -5.7653115210056977E-002  -5.5985007340816517E-002   0.0000000000000000     
  -4.4363755231229623E-002  -4.1543030269444239E-002   0.0000000000000000     
   8.3665520338758931E-002   6.0066741722450953E-002   0.0000000000000000     
   1.4048313666068407E-002  -5.9587147594801493E-003   0.0000000000000000     
  -3.0210853019882640E-002  -4.5850326554990606E-002   0.0000000000000000     
  -4.9111979719094138E-002  -5.9608093664080417E-002   0.0000000000000000     
  -4.2655066431566135E-002  -4.7232016086749574E-002   0.0000000000000000     
   7.9017659552798131E-002   8.3648262348747865E-002   0.0000000000000000     
   1.8488822392215956E-002   8.7491068584628160E-003   0.0000000000000000     
  -2.1053478216461568E-002  -3.8082012930418178E-002   0.0000000000000000     
  -3.9609242273234459E-002  -5.6845097017895134E-002   0.0000000000000000     
  -3.7178469778102706E-002  -4.7540145403968059E-002   0.0000000000000000     
   5.1607335184930547E-003  0.11192669218856582        0.0000000000000000     
  -1.2597553477811704E-002   2.9501037802572089E-002   0.0000000000000000     
  -2.4032765608135373E-002  -2.3706532061036747E-002   0.0000000000000000     
  -2.9144902872477903E-002  -4.7696017402260676E-002   0.0000000000000000     
  -2.7933965270839335E-002  -4.2467418221099680E-002   0.0000000000000000     
  -4.2304536177093170E-002  -3.0473187952052040E-002   0.0000000000000000     
  -2.1865778540583237E-002  -9.0720541802978161E-003   0.0000000000000000     
  -9.6309028722563333E-003   4.2130108684157244E-003   0.0000000000000000     
  -5.5999091721124590E-003   9.3820071940885728E-003   0.0000000000000000     
  -9.7727974401516128E-003   6.4349347967207413E-003   0.0000000000000000     
  -4.4363755231229623E-002  -4.1543030269444239E-002   0.0000000000000000     
  -2.4840654922593935E-002  -1.9118927315080653E-002   0.0000000000000000     
  -1.2287659124827320E-002  -4.1460840721692128E-003   0.0000000000000000     
  -6.7047678379297815E-003   3.3754994592900787E-003   0.0000000000000000     
  -8.0919810619013190E-003   3.4458232792972253E-003   0.0000000000000000     
  -4.2655066431566135E-002  -4.7232016086749574E-002   0.0000000000000000     
  -2.6131636534389050E-002  -2.5125552751064571E-002   0.0000000000000000     
  -1.4833213404653319E-002  -9.6921625850918923E-003   0.0000000000000000     
  -8.7597970423589477E-003  -9.3184558883153956E-004   0.0000000000000000     
  -7.9113874475059340E-003   1.1553982377164886E-003   0.0000000000000000     
  -3.7178469778102706E-002  -4.7540145403968059E-002   0.0000000000000000     
  -2.5738723375968581E-002  -2.7091930488249576E-002   0.0000000000000000     
  -1.7267565711734326E-002  -1.2425224670352316E-002   0.0000000000000000     
  -1.1764996785399958E-002  -3.5400279502762811E-003   0.0000000000000000     
  -9.2310165969654648E-003  -4.3634032802146894E-004   0.0000000000000000     
  -2.7933965270839335E-002  -4.2467418221099680E-002   0.0000000000000000     
  -2.3661915447332524E-002  -2.5018060526635660E-002   0.0000000000000000     
  -1.9590716046070347E-002  -1.2345270327950481E-002   0.0000000000000000     
  -1.5720367067052810E-002  -4.4490476250441443E-003   0.0000000000000000     
  -1.2050868510279904E-002  -1.3293924179166477E-003   0.0000000000000000     
  -9.7727974401516128E-003   6.4349347967207413E-003   0.0000000000000000     
  -1.6867650839315539E-002   5.5721567840370453E-004   0.0000000000000000     
  -2.1602552532545963E-002  -3.0657281587710508E-003   0.0000000000000000     
  -2.3977502519842903E-002  -4.4338967148035242E-003   0.0000000000000000     
  -2.3992500801206337E-002  -3.5472899896937162E-003   0.0000000000000000     
  -8.0919810619013190E-003   3.4458232792972253E-003   0.0000000000000000     
  -1.2156455690131329E-002   3.3534923437646006E-004   0.0000000000000000     
  -1.4605348616009215E-002  -1.6854608289479825E-003   0.0000000000000000     
  -1.5438659839534978E-002  -2.6166069106761006E-003   0.0000000000000000     
  -1.4656389360708618E-002  -2.4580890108078955E-003   0.0000000000000000     
  -7.9113874475059340E-003   1.1553982377164886E-003   0.0000000000000000     
  -9.2717537288794193E-003   4.5969505613958992E-005   0.0000000000000000     
  -9.8246649952645360E-003  -7.8373117407736089E-004   0.0000000000000000     
  -9.5701212466612964E-003  -1.3337038013574701E-003   0.0000000000000000     
  -8.5081224830696883E-003  -1.6039483762263691E-003   0.0000000000000000     
  -9.2310165969654648E-003  -4.3634032802146894E-004   0.0000000000000000     
  -8.2135449555598046E-003  -3.1092350788379855E-004   0.0000000000000000     
  -7.2605016703119335E-003  -3.6053919415918656E-004   0.0000000000000000     
  -6.3718867412218489E-003  -5.8518738684763263E-004   0.0000000000000000     
  -5.5477001682895525E-003  -9.8486808594913742E-004   0.0000000000000000     
  -1.2050868510279904E-002  -1.3293924179166477E-003   0.0000000000000000     
  -8.9818293701724883E-003  -7.3532980611681236E-004   0.0000000000000000     
  -6.9128586411513985E-003  -4.1588488919345914E-004   0.0000000000000000     
  -5.8439563232166401E-003  -3.7105766714658851E-004   0.0000000000000000     
  -5.7751224163682096E-003  -6.0084813997619997E-004   0.0000000000000000     
  -2.3992500801206337E-002  -3.5472899896937162E-003   0.0000000000000000     
  -2.1855191587257263E-002  -1.7502716715734868E-003   0.0000000000000000     
  -1.7773219088616652E-002  -3.8720544857469427E-004   0.0000000000000000     
  -1.1746583305284500E-002   5.4190867930266047E-004   0.0000000000000000     
  -3.7752842372608120E-003   1.0370707120585776E-003   0.0000000000000000     
  -1.4656389360708618E-002  -2.4580890108078955E-003   0.0000000000000000     
  -1.2815955084556317E-002  -1.7507838807452060E-003   0.0000000000000000     
  -1.0474774916104268E-002  -1.0355682718898706E-003   0.0000000000000000     
  -7.6328488553524662E-003  -3.1244218424188977E-004   0.0000000000000000     
  -4.2901769023009143E-003   4.1859438219873674E-004   0.0000000000000000     
  -8.5081224830696883E-003  -1.6039483762263691E-003   0.0000000000000000     
  -7.1274389112222138E-003  -1.5995965102895211E-003   0.0000000000000000     
  -5.9168407378513707E-003  -1.3257798151523901E-003   0.0000000000000000     
  -4.8763279629571573E-003  -7.8249829081497493E-004   0.0000000000000000     
  -4.0059005865395736E-003   3.0248062722723526E-005   0.0000000000000000     
  -5.5477001682895525E-003  -9.8486808594913742E-004   0.0000000000000000     
  -4.7896430672549522E-003  -1.2967095602064329E-003   0.0000000000000000     
  -4.0994165538579602E-003  -1.2578400783622523E-003   0.0000000000000000     
  -3.4770206280985731E-003  -8.6825964041659521E-004   0.0000000000000000     
  -2.9224552899767939E-003  -1.2796824636946197E-004   0.0000000000000000     
  -5.7751224163682096E-003  -6.0084813997619997E-004   0.0000000000000000     
  -5.8025675526545330E-003  -8.4212303049594059E-004   0.0000000000000000     
  -5.0225023641240337E-003  -8.3174906151945751E-004   0.0000000000000000     
  -3.4349268507767143E-003  -5.6972623304675052E-004   0.0000000000000000     
  -1.0398410126125723E-003  -5.6054545077819783E-005   0.0000000000000000     
   0.0000000000000000        0.0000000000000000        0.0000000000000000     
   1.0854460412812798E-002  -2.1650509467017135E-003   0.0000000000000000     
   2.3451365120305403E-002  -2.4353907254575989E-003   0.0000000000000000     
   3.7790714122477809E-002  -8.1101933626765658E-004   0.0000000000000000     
   5.3872507419330029E-002   2.7080632208681147E-003   0.0000000000000000     
   0.0000000000000000        0.0000000000000000        0.0000000000000000     
   1.1406395395143779E-002  -1.8415296976255328E-003   0.0000000000000000     
   2.3044912369980783E-002  -4.0635414824537908E-003   0.0000000000000000     
   3.4915550924511006E-002  -6.6660353544847721E-003   0.0000000000000000     
   4.7018311058734469E-002  -9.6490113137184808E-003   0.0000000000000000     
   0.0000000000000000        0.0000000000000000        0.0000000000000000     
   1.0613297573728385E-002  -3.5809298304096092E-003   0.0000000000000000     
   2.1449101904255394E-002  -8.5367306606580883E-003   0.0000000000000000     
   3.2507412991581025E-002  -1.4867402490745441E-002   0.0000000000000000     
   4.3788230835705273E-002  -2.2572945320671660E-002   0.0000000000000000     
   0.0000000000000000        0.0000000000000000        0.0000000000000000     
   8.4751669485666134E-003  -7.3832513450539407E-003   0.0000000000000000     
   1.8663933723129231E-002  -1.5854958260070492E-002   0.0000000000000000     
   3.0566300323687848E-002  -2.5415120745049657E-002   0.0000000000000000     
   4.4182266750242470E-002  -3.6063738799991425E-002   0.0000000000000000     
   0.0000000000000000        0.0000000000000000        0.0000000000000000     
   4.9920035196584708E-003  -1.3248494241558531E-002   0.0000000000000000     
   1.4689407826602299E-002  -2.6018224280691005E-002   0.0000000000000000     
   2.9092212920831487E-002  -3.8309190117397425E-002   0.0000000000000000     
   4.8200418802346032E-002  -5.0121391751677791E-002   0.0000000000000000     
   5.3872507419330029E-002   2.7080632208681147E-003   0.0000000000000000     
   7.1003185458812984E-002   1.1090169195294186E-002   0.0000000000000000     
   8.8489188688877618E-002   2.7303610836355019E-002   0.0000000000000000     
  0.10633051710952389        5.1348388144050620E-002   0.0000000000000000     
  0.12452717072075187        8.3224501118380992E-002   0.0000000000000000     
   4.7018311058734469E-002  -9.6490113137184808E-003   0.0000000000000000     
   6.2442709647828595E-002  -6.5429588456567753E-003   0.0000000000000000     
   8.4278263566970837E-002   9.1216325641984720E-003   0.0000000000000000     
  0.11252497281616120        3.7344762915847263E-002   0.0000000000000000     
  0.14718283739539970        7.8126432209289595E-002   0.0000000000000000     
   4.3788230835705273E-002  -2.2572945320671660E-002   0.0000000000000000     
   5.9150231199155232E-002  -2.3668209610768418E-002   0.0000000000000000     
   8.2452089844457940E-002  -1.0168045821367371E-002   0.0000000000000000     
  0.11369380677161345        1.7927546047531478E-002   0.0000000000000000     
  0.15287538198062170        6.0618565995928131E-002   0.0000000000000000     
   4.4182266750242470E-002  -3.6063738799991425E-002   0.0000000000000000     
   6.1125750112792906E-002  -4.0285583100040746E-002   0.0000000000000000     
   8.3010667521338941E-002  -3.0565424320342517E-002   0.0000000000000000     
  0.10983701897588062       -6.9032624608967568E-003   0.0000000000000000     
  0.14160480447641791        3.0700902478296540E-002   0.0000000000000000     
   4.8200418802346032E-002  -5.0121391751677791E-002   0.0000000000000000     
   6.8369266388741606E-002  -5.6395079313473755E-002   0.0000000000000000     
   8.5953996597613838E-002  -5.2070502932726963E-002   0.0000000000000000     
  0.10095460942896274       -3.7147662609437429E-002   0.0000000000000000     
  0.11337110488278833       -1.1626558343605140E-002   0.0000000000000000     
  0.12452717072075187        8.3224501118380992E-002   0.0000000000000000     
  0.13703359050280875       0.11926693503598720        0.0000000000000000     