 <VTKFile type="UnstructuredGrid"  version="0.1"   >
 <UnstructuredGrid>
 <Piece  NumberOfPoints="          1600 "  NumberOfCells="         1024 ">
 <Points>
 <DataArray  type="Float64" NumberOfComponents="3"  format="ascii" >
   0.0000000000000000        0.0000000000000000        0.0000000000000000     
   3.1250000000000000E-002   0.0000000000000000        0.0000000000000000     
   6.2500000000000000E-002   0.0000000000000000        0.0000000000000000     
   9.3750000000000000E-002   0.0000000000000000        0.0000000000000000     
  0.12500000000000000        0.0000000000000000        0.0000000000000000     
   0.0000000000000000        3.1250000000000000E-002   0.0000000000000000     
   3.1250000000000000E-002   3.1250000000000000E-002   0.0000000000000000     
   6.2500000000000000E-002   3.1250000000000000E-002   0.0000000000000000     
   9.3750000000000000E-002   3.1250000000000000E-002   0.0000000000000000     
  0.12500000000000000        3.1250000000000000E-002   0.0000000000000000     
   0.0000000000000000        6.2500000000000000E-002   0.0000000000000000     
   3.1250000000000000E-002   6.2500000000000000E-002   0.0000000000000000     
   6.2500000000000000E-002   6.2500000000000000E-002   0.0000000000000000     
   9.3750000000000000E-002   6.2500000000000000E-002   0.0000000000000000     
  0.12500000000000000        6.2500000000000000E-002   0.0000000000000000     
   0.0000000000000000        9.3750000000000000E-002   0.0000000000000000     
   3.1250000000000000E-002   9.3750000000000000E-002   0.0000000000000000     
   6.2500000000000000E-002   9.3750000000000000E-002   0.0000000000000000     
   9.3750000000000000E-002   9.3750000000000000E-002   0.0000000000000000     
  0.12500000000000000        9.3750000000000000E-002   0.0000000000000000     
   0.0000000000000000       0.12500000000000000        0.0000000000000000     
   3.1250000000000000E-002  0.12500000000000000        0.0000000000000000     
   6.2500000000000000E-002  0.12500000000000000        0.0000000000000000     
   9.3750000000000000E-002  0.12500000000000000        0.0000000000000000     
  0.12500000000000000       0.12500000000000000        0.0000000000000000     
  0.12500000000000000        0.0000000000000000        0.0000000000000000     
  0.15625000000000000        0.0000000000000000        0.0000000000000000     
  0.18750000000000000        0.0000000000000000        0.0000000000000000     
  0.21875000000000000        0.0000000000000000        0.0000000000000000     
  0.25000000000000000        0.0000000000000000        0.0000000000000000     
  0.12500000000000000        3.1250000000000000E-002   0.0000000000000000     
  0.15625000000000000        3.1250000000000000E-002   0.0000000000000000     
  0.18750000000000000        3.1250000000000000E-002   0.0000000000000000     
  0.21875000000000000        3.1250000000000000E-002   0.0000000000000000     
  0.25000000000000000        3.1250000000000000E-002   0.0000000000000000     
  0.12500000000000000        6.2500000000000000E-002   0.0000000000000000     
  0.15625000000000000        6.2500000000000000E-002   0.0000000000000000     
  0.18750000000000000        6.2500000000000000E-002   0.0000000000000000     
  0.21875000000000000        6.2500000000000000E-002   0.0000000000000000     
  0.25000000000000000        6.2500000000000000E-002   0.0000000000000000     
  0.12500000000000000        9.3750000000000000E-002   0.0000000000000000     
  0.15625000000000000        9.3750000000000000E-002   0.0000000000000000     
  0.18750000000000000        9.3750000000000000E-002   0.0000000000000000     
  0.21875000000000000        9.3750000000000000E-002   0.0000000000000000     
  0.25000000000000000        9.3750000000000000E-002   0.0000000000000000     
  0.12500000000000000       0.12500000000000000        0.0000000000000000     
  0.15625000000000000       0.12500000000000000        0.0000000000000000     
  0.18750000000000000       0.12500000000000000        0.0000000000000000     
  0.21875000000000000       0.12500000000000000        0.0000000000000000     
  0.25000000000000000       0.12500000000000000        0.0000000000000000     
  0.25000000000000000        0.0000000000000000        0.0000000000000000     
  0.28125000000000000        0.0000000000000000        0.0000000000000000     
  0.31250000000000000        0.0000000000000000        0.0000000000000000     
  0.34375000000000000        0.0000000000000000        0.0000000000000000     
  0.37500000000000000        0.0000000000000000        0.0000000000000000     
  0.25000000000000000        3.1250000000000000E-002   0.0000000000000000     
  0.28125000000000000        3.1250000000000000E-002   0.0000000000000000     
  0.31250000000000000        3.1250000000000000E-002   0.0000000000000000     
  0.34375000000000000        3.1250000000000000E-002   0.0000000000000000     
  0.37500000000000000        3.1250000000000000E-002   0.0000000000000000     
  0.25000000000000000        6.2500000000000000E-002   0.0000000000000000     
  0.28125000000000000        6.2500000000000000E-002   0.0000000000000000     
  0.31250000000000000        6.2500000000000000E-002   0.0000000000000000     
  0.34375000000000000        6.2500000000000000E-002   0.0000000000000000     
  0.37500000000000000        6.2500000000000000E-002   0.0000000000000000     
  0.25000000000000000        9.3750000000000000E-002   0.0000000000000000     
  0.28125000000000000        9.3750000000000000E-002   0.0000000000000000     
  0.31250000000000000        9.3750000000000000E-002   0.0000000000000000     
  0.34375000000000000        9.3750000000000000E-002   0.0000000000000000     
  0.37500000000000000        9.3750000000000000E-002   0.0000000000000000     
  0.25000000000000000       0.12500000000000000        0.0000000000000000     
  0.28125000000000000       0.12500000000000000        0.0000000000000000     
  0.31250000000000000       0.12500000000000000        0.0000000000000000     
  0.34375000000000000       0.12500000000000000        0.0000000000000000     
  0.37500000000000000       0.12500000000000000        0.0000000000000000     
  0.37500000000000000        0.0000000000000000        0.0000000000000000     
  0.40625000000000000        0.0000000000000000        0.0000000000000000     
  0.43750000000000000        0.0000000000000000        0.0000000000000000     
  0.46875000000000000        0.0000000000000000        0.0000000000000000     
  0.50000000000000000        0.0000000000000000        0.0000000000000000     
  0.37500000000000000        3.1250000000000000E-002   0.0000000000000000     
  0.40625000000000000        3.1250000000000000E-002   0.0000000000000000     
  0.43750000000000000        3.1250000000000000E-002   0.0000000000000000     
  0.46875000000000000        3.1250000000000000E-002   0.0000000000000000     
  0.50000000000000000        3.1250000000000000E-002   0.0000000000000000     
  0.37500000000000000        6.2500000000000000E-002   0.0000000000000000     
  0.40625000000000000        6.2500000000000000E-002   0.0000000000000000     
  0.43750000000000000        6.2500000000000000E-002   0.0000000000000000     
  0.46875000000000000        6.2500000000000000E-002   0.0000000000000000     
  0.50000000000000000        6.2500000000000000E-002   0.0000000000000000     
  0.37500000000000000        9.3750000000000000E-002   0.0000000000000000     
  0.40625000000000000        9.3750000000000000E-002   0.0000000000000000     
  0.43750000000000000        9.3750000000000000E-002   0.0000000000000000     
  0.46875000000000000        9.3750000000000000E-002   0.0000000000000000     
  0.50000000000000000        9.3750000000000000E-002   0.0000000000000000     
  0.37500000000000000       0.12500000000000000        0.0000000000000000     
  0.40625000000000000       0.12500000000000000        0.0000000000000000     
  0.43750000000000000       0.12500000000000000        0.0000000000000000     
  0.46875000000000000       0.12500000000000000        0.0000000000000000     
  0.50000000000000000       0.12500000000000000        0.0000000000000000     
  0.50000000000000000        0.0000000000000000        0.0000000000000000     
  0.53125000000000000        0.0000000000000000        0.0000000000000000     
  0.56250000000000000        0.0000000000000000        0.0000000000000000     
  0.59375000000000000        0.0000000000000000        0.0000000000000000     
  0.62500000000000000        0.0000000000000000        0.0000000000000000     
  0.50000000000000000        3.1250000000000000E-002   0.0000000000000000     
  0.53125000000000000        3.1250000000000000E-002   0.0000000000000000     
  0.56250000000000000        3.1250000000000000E-002   0.0000000000000000     
  0.59375000000000000        3.1250000000000000E-002   0.0000000000000000     
  0.62500000000000000        3.1250000000000000E-002   0.0000000000000000     
  0.50000000000000000        6.2500000000000000E-002   0.0000000000000000     
  0.53125000000000000        6.2500000000000000E-002   0.0000000000000000     
  0.56250000000000000        6.2500000000000000E-002   0.0000000000000000     
  0.59375000000000000        6.2500000000000000E-002   0.0000000000000000     
  0.62500000000000000        6.2500000000000000E-002   0.0000000000000000     
  0.50000000000000000        9.3750000000000000E-002   0.0000000000000000     
  0.53125000000000000        9.3750000000000000E-002   0.0000000000000000     
  0.56250000000000000        9.3750000000000000E-002   0.0000000000000000     
  0.59375000000000000        9.3750000000000000E-002   0.0000000000000000     
  0.62500000000000000        9.3750000000000000E-002   0.0000000000000000     
  0.50000000000000000       0.12500000000000000        0.0000000000000000     
  0.53125000000000000       0.12500000000000000        0.0000000000000000     
  0.56250000000000000       0.12500000000000000        0.0000000000000000     
[...]
 <PointData>
 <DataArray  type="Float64" Name="disp" NumberOfComponents="3" format="ascii">
   0.0000000000000000        0.0000000000000000        0.0000000000000000     
   6.0960689714779047E-003   3.7903809631708871E-003   0.0000000000000000     
   1.1666239911609082E-002   7.3237776827703473E-003   0.0000000000000000     
   1.6710512820393528E-002   1.0600190158798381E-002   0.0000000000000000     
   2.1228887697831246E-002   1.3619618391254988E-002   0.0000000000000000     
   0.0000000000000000        0.0000000000000000        0.0000000000000000     
   4.8912508305583259E-003   3.0220902729683943E-003   0.0000000000000000     
   9.5738622966096611E-003   6.0604465160425461E-003   0.0000000000000000     
   1.4047834398154005E-002   9.1150687292224555E-003   0.0000000000000000     
   1.8313167135191356E-002   1.2185956912508122E-002   0.0000000000000000     
   0.0000000000000000        0.0000000000000000        0.0000000000000000     
   3.9536635286857641E-003   2.4250539946717503E-003   0.0000000000000000     
   7.9108424439078649E-003   5.0627815277199603E-003   0.0000000000000000     
   1.1871536745666300E-002   7.9131825991446275E-003   0.0000000000000000     
   1.5835746433961073E-002   1.0976257208945756E-002   0.0000000000000000     
   0.0000000000000000        0.0000000000000000        0.0000000000000000     
   3.2833070658602184E-003   1.9992721282809556E-003   0.0000000000000000     
   6.6771803535036912E-003   4.3307827178025874E-003   0.0000000000000000     
   1.0181619862930417E-002   6.9945317685648984E-003   0.0000000000000000     
   1.3796625594140396E-002   9.9905192805678847E-003   0.0000000000000000     
   0.0000000000000000        0.0000000000000000        0.0000000000000000     
   2.8801814420816893E-003   1.7447446737960093E-003   0.0000000000000000     
   5.8728760253971410E-003   3.8644500862904307E-003   0.0000000000000000     
   8.9780837499463546E-003   6.3591162374832637E-003   0.0000000000000000     
   1.2195804615729330E-002   9.2287431273745096E-003   0.0000000000000000     
   2.1228887697831246E-002   1.3619618391254988E-002   0.0000000000000000     
   2.5434201849336181E-002   1.6612626996853209E-002   0.0000000000000000     
   2.9539292580322254E-002   1.9809780592306096E-002   0.0000000000000000     
   3.3544159890789481E-002   2.3211079177613631E-002   0.0000000000000000     
   3.7448803780737852E-002   2.6816522752775837E-002   0.0000000000000000     
   1.8313167135191356E-002   1.2185956912508122E-002   0.0000000000000000     
   2.2408038418138161E-002   1.5341449364256018E-002   0.0000000000000000     
   2.6370626157410860E-002   1.8649884382822602E-002   0.0000000000000000     
   3.0200930353009456E-002   2.2111261968207882E-002   0.0000000000000000     
   3.3898951004933946E-002   2.5725582120411858E-002   0.0000000000000000     
   1.5835746433961073E-002   1.0976257208945756E-002   0.0000000000000000     
   1.9731669340722544E-002   1.4210832022953528E-002   0.0000000000000000     
   2.3487503297881084E-002   1.7575733706998133E-002   0.0000000000000000     
   2.7103248305436690E-002   2.1070962261079573E-002   0.0000000000000000     
   3.0578904363389357E-002   2.4696517685197854E-002   0.0000000000000000     
   1.3796625594140396E-002   9.9905192805678847E-003   0.0000000000000000     
   1.7405094617089334E-002   1.3220774972945749E-002   0.0000000000000000     
   2.0889924001732934E-002   1.6587328564832693E-002   0.0000000000000000     
   2.4251113748071183E-002   2.0090180056228712E-002   0.0000000000000000     
   2.7488663856104101E-002   2.3729329447133816E-002   0.0000000000000000     
   1.2195804615729330E-002   9.2287431273745096E-003   0.0000000000000000     
   1.5428314247238527E-002   1.2371278214232674E-002   0.0000000000000000     
   1.8577888268966395E-002   1.5684668956326270E-002   0.0000000000000000     
   2.1644526680912941E-002   1.9168915353655298E-002   0.0000000000000000     
   2.4628229483078162E-002   2.2824017406219747E-002   0.0000000000000000     
   3.7448803780737852E-002   2.6816522752775837E-002   0.0000000000000000     
   4.1257611136024941E-002   3.0621590209750367E-002   0.0000000000000000     
   4.4974968842508303E-002   3.4621760440494913E-002   0.0000000000000000     
   4.8600876900187946E-002   3.8817033445009468E-002   0.0000000000000000     
   5.2135335309063877E-002   4.3207409223294038E-002   0.0000000000000000     
   3.3898951004933946E-002   2.5725582120411858E-002   0.0000000000000000     
   3.7487858138920145E-002   2.9521750911981580E-002   0.0000000000000000     
   4.0990821780703887E-002   3.3528674415464095E-002   0.0000000000000000     
   4.4407841930285165E-002   3.7746352630859410E-002   0.0000000000000000     
   4.7738918587663978E-002   4.2174785558167525E-002   0.0000000000000000     
   3.0578904363389357E-002   2.4696517685197854E-002   0.0000000000000000     
   3.3943867226065627E-002   2.8496989085568782E-002   0.0000000000000000     
   3.7227532647792015E-002   3.2516965568408183E-002   0.0000000000000000     
   4.0429900628568542E-002   3.6756447133716064E-002   0.0000000000000000     
   4.3550971168395188E-002   4.1215433781492415E-002   0.0000000000000000     
   2.7488663856104101E-002   2.3729329447133816E-002   0.0000000000000000     
   3.0625638397461370E-002   2.7547304730511975E-002   0.0000000000000000     
   3.3685101443772687E-002   3.1586633899327178E-002   0.0000000000000000     
   3.6667052995038057E-002   3.5847316953579421E-002   0.0000000000000000     
   3.9571493051257484E-002   4.0329353893268707E-002   0.0000000000000000     
   2.4628229483078162E-002   2.2824017406219747E-002   0.0000000000000000     
   2.7533171653107379E-002   2.6672697846811165E-002   0.0000000000000000     
   3.0363528168645897E-002   3.0737679408221079E-002   0.0000000000000000     
   3.3119299029693731E-002   3.5018962090449496E-002   0.0000000000000000     
   3.5800484236250880E-002   3.9516545893496395E-002   0.0000000000000000     
   5.2135335309063877E-002   4.3207409223294038E-002   0.0000000000000000     
   5.5575558719533708E-002   4.7797119183390586E-002   0.0000000000000000     
   5.8918761781995101E-002   5.2590394733341109E-002   0.0000000000000000     
   6.2164944496448042E-002   5.7587235873145598E-002   0.0000000000000000     
   6.5314106862892546E-002   6.2787642602804061E-002   0.0000000000000000     
   4.7738918587663978E-002   4.2174785558167525E-002   0.0000000000000000     
   5.0979915839988559E-002   4.6807285528355731E-002   0.0000000000000000     
   5.4126697774407151E-002   5.1637164872391325E-002   0.0000000000000000     
   5.7179264390919742E-002   5.6664423590274307E-002   0.0000000000000000     
   6.0137615689526323E-002   6.1889061682004677E-002   0.0000000000000000     
   4.3550971168395188E-002   4.1215433781492415E-002   0.0000000000000000     
   4.6586589279562829E-002   4.5881320238936499E-002   0.0000000000000000     
   4.9532599974362358E-002   5.0741501233247582E-002   0.0000000000000000     
   5.2389003252793762E-002   5.5795976764425666E-002   0.0000000000000000     
   5.5155799114857046E-002   6.1044746832470742E-002   0.0000000000000000     
   3.9571493051257484E-002   4.0329353893268707E-002   0.0000000000000000     
   4.2395579038256526E-002   4.5019223315132903E-002   0.0000000000000000     
   4.5136468381860737E-002   4.9903403815909887E-002   0.0000000000000000     
   4.7794161082070116E-002   5.4981895395599667E-002   0.0000000000000000     
   5.0368657138884686E-002   6.0254698054202256E-002   0.0000000000000000     
   3.5800484236250880E-002   3.9516545893496395E-002   0.0000000000000000     
   3.8406885116069628E-002   4.4220994756944937E-002   0.0000000000000000     
   4.0938302996902272E-002   4.9122872620378247E-002   0.0000000000000000     
   4.3394737878748812E-002   5.4222179483796339E-002   0.0000000000000000     
   4.5776189761609250E-002   5.9518915347199206E-002   0.0000000000000000     
   6.5314106862892546E-002   6.2787642602804061E-002   0.0000000000000000     
   6.8369394490501972E-002   6.8178355615605424E-002   0.0000000000000000     
   7.1333952988449675E-002   7.3746115604838652E-002   0.0000000000000000     
   7.4207782356735710E-002   7.9490922570503733E-002   0.0000000000000000     
   7.6990882595360036E-002   8.5412776512600680E-002   0.0000000000000000     
   6.0137615689526323E-002   6.1889061682004677E-002   0.0000000000000000     
   6.3006133337249665E-002   6.7302288211093034E-002   0.0000000000000000     
   6.5789199001112492E-002   7.2895312241050017E-002   0.0000000000000000     
   6.8486812681114784E-002   7.8668133771875579E-002   0.0000000000000000     
   7.1098974377256569E-002   8.4620752803569760E-002   0.0000000000000000     
   5.5155799114857046E-002   6.1044746832470742E-002   0.0000000000000000     
   5.7837580455266623E-002   6.6481339566922121E-002   0.0000000000000000     
   6.0438940168736945E-002   7.2099283097319111E-002   0.0000000000000000     
   6.2959878255267984E-002   7.7898577423661741E-002   0.0000000000000000     
   6.5400394714859741E-002   8.3879222545949983E-002   0.0000000000000000     
   5.0368657138884686E-002   6.0254698054202256E-002   0.0000000000000000     
   5.2863735844552846E-002   6.5715509683092657E-002   0.0000000000000000     
   5.5283176491323048E-002   7.1358028173645990E-002   0.0000000000000000     
   5.7626979079195277E-002   7.7182253525862221E-002   0.0000000000000000     
   5.9895143608169547E-002   8.3188185739741349E-002   0.0000000000000000     
   4.5776189761609250E-002   5.9518915347199206E-002   0.0000000000000000     
   4.8084599505108336E-002   6.5004798559604685E-002   0.0000000000000000     
   5.0321907968870816E-002   7.0671547470030627E-002   0.0000000000000000     
   5.2488115152896697E-002   7.6519162078477004E-002   0.0000000000000000     
   5.4583221057185979E-002   8.2547642384943873E-002   0.0000000000000000     
   7.6990882595360036E-002   8.5412776512600680E-002   0.0000000000000000     
   7.9677303511150557E-002   9.1503952730984731E-002   0.0000000000000000     
   8.2261094910935181E-002   9.7756726525511178E-002   0.0000000000000000     
   8.4742256794713908E-002  0.10417109789618002        0.0000000000000000     
   8.7120789162486723E-002  0.11074706684299127        0.0000000000000000     
   7.1098974377256569E-002   8.4620752803569760E-002   0.0000000000000000     
   7.3619425012369899E-002   9.0742859762448960E-002   0.0000000000000000     
   7.6041905509286772E-002   9.7024145074829635E-002   0.0000000000000000     
   7.8366415868007258E-002  0.10346460874071174        0.0000000000000000     
   8.0592956088531315E-002  0.11006425076009535        0.0000000000000000     
   6.5400394714859741E-002   8.3879222545949983E-002   0.0000000000000000     
   6.7754382847108274E-002   9.0029383907184291E-002   0.0000000000000000     
   7.0015735951609578E-002   9.6337226950365118E-002   0.0000000000000000     
   7.2184454028363709E-002  0.10280275167549242        0.0000000000000000     
   7.4260537077370598E-002  0.10942595808256628        0.0000000000000000     
   5.9895143608169547E-002   8.3188185739741349E-002   0.0000000000000000     
   6.2082177015365704E-002   8.9363525165190708E-002   0.0000000000000000     
   6.4182586237903599E-002   9.5695972152117600E-002   0.0000000000000000     
   6.6196371275783233E-002  0.10218552670052206        0.0000000000000000     
   6.8123532129004613E-002  0.10883218881040406        0.0000000000000000     
   5.4583221057185979E-002   8.2547642384943873E-002   0.0000000000000000     
   5.6602807517142181E-002   8.8745283536468225E-002   0.0000000000000000     
   5.8542456368168801E-002   9.5100380680087165E-002   0.0000000000000000     
   6.0402167610265858E-002  0.10161293381580064        0.0000000000000000     
   6.2181941243433334E-002  0.10828294294360868        0.0000000000000000     
   8.7120789162486723E-002  0.11074706684299127        0.0000000000000000     
   8.9403401061744756E-002  0.11746698579205322        0.0000000000000000     
   9.1596801539979039E-002  0.12431320716947418        0.0000000000000000     
   9.3700990597189629E-002  0.13128573097525417        0.0000000000000000     
   9.5715968233376483E-002  0.13838455720939319        0.0000000000000000     
   8.0592956088531315E-002  0.11006425076009535        0.0000000000000000     
   8.2730904880170902E-002  0.11680880857824846        0.0000000000000000     
   8.4789640952238024E-002  0.12368401964043921        0.0000000000000000     
   8.6769164304732652E-002  0.13068988394666756        0.0000000000000000     
   8.8669474937654771E-002  0.13782640149693351        0.0000000000000000     
   7.4260537077370598E-002  0.10942595808256628        0.0000000000000000     
   7.6254650073787691E-002  0.11619471096332477        0.0000000000000000     
   7.8177457992772328E-002  0.12309687510950602        0.0000000000000000     
   8.0028960834324550E-002  0.13013245052111008        0.0000000000000000     
   8.1809158598444329E-002  0.13730143719813692        0.0000000000000000     
   6.8123532129004613E-002  0.10883218881040406        0.0000000000000000     
   6.9974636642595067E-002  0.11562469294728209        0.0000000000000000     
   7.1760252661581994E-002  0.12255177357667468        0.0000000000000000     
   7.3480380185965324E-002  0.12961343069858178        0.0000000000000000     
   7.5135019215745127E-002  0.13680966431300345        0.0000000000000000     
   6.2181941243433334E-002  0.10828294294360868        0.0000000000000000     
   6.3890864586593099E-002  0.11509875453012045        0.0000000000000000     
   6.5538024958666979E-002  0.12204871504194510        0.0000000000000000     
   6.7123422359655016E-002  0.12913282447908270        0.0000000000000000     
   6.8647056789557168E-002  0.13635108284153311        0.0000000000000000     
   9.5715968233376483E-002  0.13838455720939319        0.0000000000000000     
   9.7642251872997105E-002  0.14561145107429543        0.0000000000000000     
   9.9480358940508981E-002  0.15296817777236504        0.0000000000000000     
  0.10123028943591210       0.16045473730360207        0.0000000000000000     
  0.10289204335920647       0.16807112966800652        0.0000000000000000     
   8.8669474937654771E-002  0.13782640149693351        0.0000000000000000     
   9.0480590430137092E-002  0.14508534625229427        0.0000000000000000     
   9.2192528361312198E-002  0.15245849217380711        0.0000000000000000     
   9.3805288731180145E-002  0.15994583926147202        0.0000000000000000     
   9.5318871539740890E-002  0.16754738751528894        0.0000000000000000     
   8.1809158598444329E-002  0.13730143719813692        0.0000000000000000     
   8.3502190261301040E-002  0.14458975974047861        0.0000000000000000     
   8.5092194799064061E-002  0.15198334274802719        0.0000000000000000     
   8.6579172211733391E-002  0.15948218622078270        0.0000000000000000     
   8.7963122499308988E-002  0.16708629015874510        0.0000000000000000     
   7.5135019215745127E-002  0.13680966431300345        0.0000000000000000     
   7.6707051366488990E-002  0.14412469153884838        0.0000000000000000     
   7.8179358253764542E-002  0.15154272949502529        0.0000000000000000     
   7.9551939877571795E-002  0.15906377818153411        0.0000000000000000     
   8.0824796237910765E-002  0.16668783759837497        0.0000000000000000     
   6.8647056789557168E-002  0.13635108284153311        0.0000000000000000     
   7.0095173745700901E-002  0.14369014164740362        0.0000000000000000     
   7.1454018725413654E-002  0.15113665241480134        0.0000000000000000     
   7.2723591728695441E-002  0.15869061514372632        0.0000000000000000     
   7.3903892755546235E-002  0.16635202983417854        0.0000000000000000     
   0.0000000000000000        0.0000000000000000        0.0000000000000000     
   2.8801814420816893E-003   1.7447446737960093E-003   0.0000000000000000     
   5.8728760253971410E-003   3.8644500862904307E-003   0.0000000000000000     
   8.9780837499463546E-003   6.3591162374832637E-003   0.0000000000000000     
   1.2195804615729330E-002   9.2287431273745096E-003   0.0000000000000000     
   0.0000000000000000        0.0000000000000000        0.0000000000000000     
   2.6104342549166581E-003   1.5888124045955138E-003   0.0000000000000000     
   5.2899393354750805E-003   3.5564718381676038E-003   0.0000000000000000     
   8.0385152416752696E-003   5.9029783007162693E-003   0.0000000000000000     
   1.0856161973517221E-002   8.6283317922415115E-003   0.0000000000000000     
   0.0000000000000000        0.0000000000000000        0.0000000000000000     
   2.3402131019316054E-003   1.4588160940580716E-003   0.0000000000000000     
   4.7203801596243759E-003   3.2995361784182234E-003   0.0000000000000000     
   7.1405011730783143E-003   5.5221602530804549E-003   0.0000000000000000     
   9.6005761422934179E-003   8.1266883180447693E-003   0.0000000000000000     
   0.0000000000000000        0.0000000000000000        0.0000000000000000     
   2.0695179831265319E-003   1.3547557421836822E-003   0.0000000000000000     
   4.1641984978450291E-003   3.0936431070422905E-003   0.0000000000000000     
   6.2840415441554930E-003   5.2166620945758250E-003   0.0000000000000000     
   8.4290471220579196E-003   7.7238127047842857E-003   0.0000000000000000     
   0.0000000000000000        0.0000000000000000        0.0000000000000000     
   1.7983488985014377E-003   1.2766313489723459E-003   0.0000000000000000     
   3.6213943501370383E-003   2.9387926240398042E-003   0.0000000000000000     
   5.4691363549068030E-003   4.9864838252023751E-003   0.0000000000000000     
   7.3415749128107307E-003   7.4197049524600562E-003   0.0000000000000000     
   1.2195804615729330E-002   9.2287431273745096E-003   0.0000000000000000     
   1.5428314247238527E-002   1.2371278214232674E-002   0.0000000000000000     
   1.8577888268966395E-002   1.5684668956326270E-002   0.0000000000000000     
   2.1644526680912941E-002   1.9168915353655298E-002   0.0000000000000000     
   2.4628229483078162E-002   2.2824017406219747E-002   0.0000000000000000     
   1.0856161973517221E-002   8.6283317922415115E-003   0.0000000000000000     
   1.3689572362549264E-002   1.1650286253194720E-002   0.0000000000000000     
   1.6485439240319723E-002   1.4886595624027284E-002   0.0000000000000000     
   1.9243762606828606E-002   1.8337259904739205E-002   0.0000000000000000     
   2.1964542462075909E-002   2.2002279095330486E-002   0.0000000000000000     
   9.6005761422934179E-003   8.1266883180447693E-003   0.0000000000000000     
   1.2077113094400699E-002   1.1045743596212290E-002   0.0000000000000000     
   1.4546620056531170E-002   1.4211949310484142E-002   0.0000000000000000     
   1.7009097028684833E-002   1.7625305460860337E-002   0.0000000000000000     
   1.9464544010861683E-002   2.1285812047340862E-002   0.0000000000000000     
   8.4290471220579196E-003   7.7238127047842857E-003   0.0000000000000000     
   1.0590936442792825E-002   1.0557650243285388E-002   0.0000000000000000     
   1.2761430717600726E-002   1.3660730015696855E-002   0.0000000000000000     
   1.4940529946481618E-002   1.7033052022018685E-002   0.0000000000000000     
   1.7128234129435507E-002   2.0674616262250870E-002   0.0000000000000000     
   7.3415749128107307E-003   7.4197049524600562E-003   0.0000000000000000     
   9.2310424077256519E-003   1.0186006194414015E-002   0.0000000000000000     
   1.1129871223528395E-002   1.3232937739665409E-002   0.0000000000000000     
   1.3038061360218966E-002   1.6560499588214244E-002   0.0000000000000000     
   1.4955612817797356E-002   2.0168691740060512E-002   0.0000000000000000     
   2.4628229483078162E-002   2.2824017406219747E-002   0.0000000000000000     
   2.7533171653107379E-002   2.6672697846811165E-002   0.0000000000000000     