 <VTKFile type="UnstructuredGrid"  version="0.1"   >
 <UnstructuredGrid>
 <Piece  NumberOfPoints="          1600 "  NumberOfCells="         1024 ">
 <Points>
 <DataArray  type="Float64" NumberOfComponents="3"  format="ascii" >
   0.0000000000000000        0.0000000000000000        0.0000000000000000     
   3.1250000000000000E-002   0.0000000000000000        0.0000000000000000     
   6.2500000000000000E-002   0.0000000000000000        0.0000000000000000     
   9.3750000000000000E-002   0.0000000000000000        0.0000000000000000     
  0.12500000000000000        0.0000000000000000        0.0000000000000000     
   0.0000000000000000        3.1250000000000000E-002   0.0000000000000000     
   3.1250000000000000E-002   3.1250000000000000E-002   0.0000000000000000     
   6.2500000000000000E-002   3.1250000000000000E-002   0.0000000000000000     
   9.3750000000000000E-002   3.1250000000000000E-002   0.0000000000000000     
  0.12500000000000000        3.1250000000000000E-002   0.0000000000000000     
   0.0000000000000000        6.2500000000000000E-002   0.0000000000000000     
   3.1250000000000000E-002   6.2500000000000000E-002   0.0000000000000000     
   6.2500000000000000E-002   6.2500000000000000E-002   0.0000000000000000     
   9.3750000000000000E-002   6.2500000000000000E-002   0.0000000000000000     
  0.12500000000000000        6.2500000000000000E-002   0.0000000000000000     
   0.0000000000000000        9.3750000000000000E-002   0.0000000000000000     
   3.1250000000000000E-002   9.3750000000000000E-002   0.0000000000000000     
   6.2500000000000000E-002   9.3750000000000000E-002   0.0000000000000000     
   9.3750000000000000E-002   9.3750000000000000E-002   0.0000000000000000     
  0.12500000000000000        9.3750000000000000E-002   0.0000000000000000     
   0.0000000000000000       0.12500000000000000        0.0000000000000000     
   3.1250000000000000E-002  0.12500000000000000        0.0000000000000000     
   6.2500000000000000E-002  0.12500000000000000        0.0000000000000000     
   9.3750000000000000E-002  0.12500000000000000        0.0000000000000000     
  0.12500000000000000       0.12500000000000000        0.0000000000000000     
  0.12500000000000000        0.0000000000000000        0.0000000000000000     
  0.15625000000000000        0.0000000000000000        0.0000000000000000     
  0.18750000000000000        0.0000000000000000        0.0000000000000000     
  0.21875000000000000        0.0000000000000000        0.0000000000000000     
  0.25000000000000000        0.0000000000000000        0.0000000000000000     
  0.12500000000000000        3.1250000000000000E-002   0.0000000000000000     
  0.15625000000000000        3.1250000000000000E-002   0.0000000000000000     
  0.18750000000000000        3.1250000000000000E-002   0.0000000000000000     
  0.21875000000000000        3.1250000000000000E-002   0.0000000000000000     
  0.25000000000000000        3.1250000000000000E-002   0.0000000000000000     
  0.12500000000000000        6.2500000000000000E-002   0.0000000000000000     
  0.15625000000000000        6.2500000000000000E-002   0.0000000000000000     
  0.18750000000000000        6.2500000000000000E-002   0.0000000000000000     
  0.21875000000000000        6.2500000000000000E-002   0.0000000000000000     
  0.25000000000000000        6.2500000000000000E-002   0.0000000000000000     
  0.12500000000000000        9.3750000000000000E-002   0.0000000000000000     
  0.15625000000000000        9.3750000000000000E-002   0.0000000000000000     
  0.18750000000000000        9.3750000000000000E-002   0.0000000000000000     
  0.21875000000000000        9.3750000000000000E-002   0.0000000000000000     
  0.25000000000000000        9.3750000000000000E-002   0.0000000000000000     
  0.12500000000000000       0.12500000000000000        0.0000000000000000     
  0.15625000000000000       0.12500000000000000        0.0000000000000000     
  0.18750000000000000       0.12500000000000000        0.0000000000000000     
  0.21875000000000000       0.12500000000000000        0.0000000000000000     
  0.25000000000000000       0.12500000000000000        0.0000000000000000     
  0.25000000000000000        0.0000000000000000        0.0000000000000000     
  0.28125000000000000        0.0000000000000000        0.0000000000000000     
  0.31250000000000000        0.0000000000000000        0.0000000000000000     
  0.34375000000000000        0.0000000000000000        0.0000000000000000     
  0.37500000000000000        0.0000000000000000        0.0000000000000000     
  0.25000000000000000        3.1250000000000000E-002   0.0000000000000000     
  0.28125000000000000        3.1250000000000000E-002   0.0000000000000000     
  0.31250000000000000        3.1250000000000000E-002   0.0000000000000000     
  0.34375000000000000        3.1250000000000000E-002   0.0000000000000000     
  0.37500000000000000        3.1250000000000000E-002   0.0000000000000000     
  0.25000000000000000        6.2500000000000000E-002   0.0000000000000000     
  0.28125000000000000        6.2500000000000000E-002   0.0000000000000000     
  0.31250000000000000        6.2500000000000000E-002   0.0000000000000000     
  0.34375000000000000        6.2500000000000000E-002   0.0000000000000000     
  0.37500000000000000        6.2500000000000000E-002   0.0000000000000000     
  0.25000000000000000        9.3750000000000000E-002   0.0000000000000000     
  0.28125000000000000        9.3750000000000000E-002   0.0000000000000000     
  0.31250000000000000        9.3750000000000000E-002   0.0000000000000000     
  0.34375000000000000        9.3750000000000000E-002   0.0000000000000000     
  0.37500000000000000        9.3750000000000000E-002   0.0000000000000000     
  0.25000000000000000       0.12500000000000000        0.0000000000000000     
  0.28125000000000000       0.12500000000000000        0.0000000000000000     
  0.31250000000000000       0.12500000000000000        0.0000000000000000     
  0.34375000000000000       0.12500000000000000        0.0000000000000000     
  0.37500000000000000       0.12500000000000000        0.0000000000000000     
  0.37500000000000000        0.0000000000000000        0.0000000000000000     
  0.40625000000000000        0.0000000000000000        0.0000000000000000     
  0.43750000000000000        0.0000000000000000        0.0000000000000000     
  0.46875000000000000        0.0000000000000000        0.0000000000000000     
  0.50000000000000000        0.0000000000000000        0.0000000000000000     
  0.37500000000000000        3.1250000000000000E-002   0.0000000000000000     
  0.40625000000000000        3.1250000000000000E-002   0.0000000000000000     
  0.43750000000000000        3.1250000000000000E-002   0.0000000000000000     
  0.46875000000000000        3.1250000000000000E-002   0.0000000000000000     
  0.50000000000000000        3.1250000000000000E-002   0.0000000000000000     
  0.37500000000000000        6.2500000000000000E-002   0.0000000000000000     
  0.40625000000000000        6.2500000000000000E-002   0.0000000000000000     
  0.43750000000000000        6.2500000000000000E-002   0.0000000000000000     
  0.46875000000000000        6.2500000000000000E-002   0.0000000000000000     
  0.50000000000000000        6.2500000000000000E-002   0.0000000000000000     
  0.37500000000000000        9.3750000000000000E-002   0.0000000000000000     
  0.40625000000000000        9.3750000000000000E-002   0.0000000000000000     
  0.43750000000000000        9.3750000000000000E-002   0.0000000000000000     
  0.46875000000000000        9.3750000000000000E-002   0.0000000000000000     
  0.50000000000000000        9.3750000000000000E-002   0.0000000000000000     
  0.37500000000000000       0.12500000000000000        0.0000000000000000     
  0.40625000000000000       0.12500000000000000        0.0000000000000000     
  0.43750000000000000       0.12500000000000000        0.0000000000000000     
  0.46875000000000000       0.12500000000000000        0.0000000000000000     
  0.50000000000000000       0.12500000000000000        0.0000000000000000     
  0.50000000000000000        0.0000000000000000        0.0000000000000000     
  0.53125000000000000        0.0000000000000000        0.0000000000000000     
  0.56250000000000000        0.0000000000000000        0.0000000000000000     
  0.59375000000000000        0.0000000000000000        0.0000000000000000     
  0.62500000000000000        0.0000000000000000        0.0000000000000000     
  0.50000000000000000        3.1250000000000000E-002   0.0000000000000000     
  0.53125000000000000        3.1250000000000000E-002   0.0000000000000000     
  0.56250000000000000        3.1250000000000000E-002   0.0000000000000000     
  0.59375000000000000        3.1250000000000000E-002   0.0000000000000000     
  0.62500000000000000        3.1250000000000000E-002   0.0000000000000000     
  0.50000000000000000        6.2500000000000000E-002   0.0000000000000000     
  0.53125000000000000        6.2500000000000000E-002   0.0000000000000000     
  0.56250000000000000        6.2500000000000000E-002   0.0000000000000000     
  0.59375000000000000        6.2500000000000000E-002   0.0000000000000000     
  0.62500000000000000        6.2500000000000000E-002   0.0000000000000000     
  0.50000000000000000        9.3750000000000000E-002   0.0000000000000000     
  0.53125000000000000        9.3750000000000000E-002   0.0000000000000000     
  0.56250000000000000        9.3750000000000000E-002   0.0000000000000000     
  0.59375000000000000        9.3750000000000000E-002   0.0000000000000000     
  0.62500000000000000        9.3750000000000000E-002   0.0000000000000000     
  0.50000000000000000       0.12500000000000000        0.0000000000000000     
  0.53125000000000000       0.12500000000000000        0.0000000000000000     
  0.56250000000000000       0.12500000000000000        0.0000000000000000     
[...]
 <PointData>
 <DataArray  type="Float64" Name="disp" NumberOfComponents="3" format="ascii">
   0.0000000000000000        0.0000000000000000        0.0000000000000000     
   5.9212460343736027E-003   2.8769782687775979E-003   0.0000000000000000     
   1.1672070382540237E-002   4.8267518152569477E-003   0.0000000000000000     
   1.7252473044499905E-002   5.8493206394380510E-003   0.0000000000000000     
   2.2662454020252604E-002   5.9446847413209053E-003   0.0000000000000000     
   0.0000000000000000        0.0000000000000000        0.0000000000000000     
   5.4267793560467551E-003   1.7977112608538468E-003   0.0000000000000000     
   1.0824454661140683E-002   3.1203436060639042E-003   0.0000000000000000     
   1.6193025915281788E-002   3.9678970356301704E-003   0.0000000000000000     
   2.1532493118470063E-002   4.3403715495526473E-003   0.0000000000000000     
   0.0000000000000000        0.0000000000000000        0.0000000000000000     
   4.9637859466055154E-003   9.1631539958856884E-004   0.0000000000000000     
   1.0007165059157485E-002   1.6965483910767886E-003   0.0000000000000000     
   1.5130137337655912E-002   2.3406989744646591E-003   0.0000000000000000     
   2.0332702782100788E-002   2.8487671497521797E-003   0.0000000000000000     
   0.0000000000000000        0.0000000000000000        0.0000000000000000     
   4.5322658060498837E-003   2.3279068498176383E-004   0.0000000000000000     
   9.2202015765906441E-003   5.5536617029560266E-004   0.0000000000000000     
   1.4063807311622274E-002   9.6772645594151634E-004   0.0000000000000000     
   1.9063083011144785E-002   1.4698715419195049E-003   0.0000000000000000     
   0.0000000000000000        0.0000000000000000        0.0000000000000000     
   4.1322189343798591E-003  -2.5286288296656799E-004   0.0000000000000000     
   8.4635642134401542E-003  -3.0320305627965389E-004   0.0000000000000000     
   1.2994035837180885E-002  -1.5102051993925758E-004   0.0000000000000000     
   1.7723633805602049E-002   2.0368472605462071E-004   0.0000000000000000     
   2.2662454020252604E-002   5.9446847413209053E-003   0.0000000000000000     
   2.8328072283074421E-002   6.1041791787375321E-003   0.0000000000000000     
   3.4675386806241437E-002   7.3191390095199505E-003   0.0000000000000000     
   4.1704397589753653E-002   9.5895642336681613E-003   0.0000000000000000     
   4.9415104633611054E-002   1.2915454851182165E-002   0.0000000000000000     
   2.1532493118470063E-002   4.3403715495526473E-003   0.0000000000000000     
   2.7111243943892822E-002   4.7944807501615165E-003   0.0000000000000000     
   3.3197666064737355E-002   5.8869382397869607E-003   0.0000000000000000     
   3.9791759481003691E-002   7.6177440184289815E-003   0.0000000000000000     
   4.6893524192691806E-002   9.9868980860875773E-003   0.0000000000000000     
   2.0332702782100788E-002   2.8487671497521797E-003   0.0000000000000000     
   2.5744847050730900E-002   3.4746357268599726E-003   0.0000000000000000     
   3.1496555801785023E-002   4.4721875157086536E-003   0.0000000000000000     
   3.7587829035263143E-002   5.8414225162982253E-003   0.0000000000000000     
   4.4018666751165274E-002   7.5823407286286868E-003   0.0000000000000000     
   1.9063083011144785E-002   1.4698715419195049E-003   0.0000000000000000     
   2.4228881603588662E-002   2.1446441088328991E-003   0.0000000000000000     
   2.9572056017384399E-002   3.0748868372850288E-003   0.0000000000000000     
   3.5092606252532008E-002   4.2605997272758944E-003   0.0000000000000000     
   4.0790532309031464E-002   5.7017827788054956E-003   0.0000000000000000     
   1.7723633805602049E-002   2.0368472605462071E-004   0.0000000000000000     
   2.2563347602466106E-002   8.0450589608029672E-004   0.0000000000000000     
   2.7424166711535518E-002   1.6950362045160859E-003   0.0000000000000000     
   3.2306091132810272E-002   2.8752756513619887E-003   0.0000000000000000     
   3.7209120866290378E-002   4.3452242366180047E-003   0.0000000000000000     
   4.9415104633611054E-002   1.2915454851182165E-002   0.0000000000000000     
   5.6880428701195834E-002   1.5983584873474427E-002   0.0000000000000000     
   6.3173290555890160E-002   1.7480728311957402E-002   0.0000000000000000     
   6.8293690197694060E-002   1.7406885166631105E-002   0.0000000000000000     
   7.2241627626607491E-002   1.5762055437495526E-002   0.0000000000000000     
   4.6893524192691806E-002   9.9868980860875773E-003   0.0000000000000000     
   5.3864769314300454E-002   1.2395592832299285E-002   0.0000000000000000     
   6.0067303960328416E-002   1.4245020646600649E-002   0.0000000000000000     
   6.5501128130775674E-002   1.5535181528991665E-002   0.0000000000000000     
   7.0166241825642239E-002   1.6266075479472335E-002   0.0000000000000000     
   4.4018666751165274E-002   7.5823407286286868E-003   0.0000000000000000     
   5.0413978889335624E-002   9.5497273511890631E-003   0.0000000000000000     
   5.6398675389618444E-002   1.1598367582468377E-002   0.0000000000000000     
   6.1972756252013726E-002   1.3728261422466630E-002   0.0000000000000000     
   6.7136221476521457E-002   1.5939408871183818E-002   0.0000000000000000     
   4.0790532309031464E-002   5.7017827788054956E-003   0.0000000000000000     
   4.6528057426301367E-002   7.4459884301437537E-003   0.0000000000000000     
   5.2167404843760271E-002   9.5407691195605899E-003   0.0000000000000000     
   5.7708574561408196E-002   1.1986124847055996E-002   0.0000000000000000     
   6.3151566579245116E-002   1.4782055612629982E-002   0.0000000000000000     
   3.7209120866290378E-002   4.3452242366180047E-003   0.0000000000000000     
   4.2207004925197647E-002   6.0843760691633598E-003   0.0000000000000000     
   4.7373492322753882E-002   8.0722252578772791E-003   0.0000000000000000     
   5.2708583058959077E-002   1.0308771802759766E-002   0.0000000000000000     
   5.8212277133813245E-002   1.2794015703810818E-002   0.0000000000000000     
   7.2241627626607491E-002   1.5762055437495526E-002   0.0000000000000000     
   7.8680322901904368E-002   1.6181470879081117E-002   0.0000000000000000     
   9.1272996082858576E-002   2.2300363245918331E-002   0.0000000000000000     
  0.11001964716947012        3.4118732538007165E-002   0.0000000000000000     
  0.13492027616173896        5.1636578755347620E-002   0.0000000000000000     
   7.0166241825642239E-002   1.6266075479472335E-002   0.0000000000000000     
   7.6369432335410770E-002   1.8094507758732122E-002   0.0000000000000000     
   8.6417486950563907E-002   2.2677283627460486E-002   0.0000000000000000     
  0.10031040567110164        3.0014403085657421E-002   0.0000000000000000     
  0.11804818849702399        4.0105866133322940E-002   0.0000000000000000     
   6.7136221476521457E-002   1.5939408871183818E-002   0.0000000000000000     
   7.3078205734435603E-002   1.8693426538063690E-002   0.0000000000000000     
   8.0987843697050144E-002   2.2451931032549974E-002   0.0000000000000000     
   9.0865135364365052E-002   2.7214922354642675E-002   0.0000000000000000     
  0.10271008073638037        3.2982400504341786E-002   0.0000000000000000     
   6.3151566579245116E-002   1.4782055612629982E-002   0.0000000000000000     
   6.8806643098978881E-002   1.7978227217075822E-002   0.0000000000000000     
   7.4984066322317300E-002   2.1624305461186800E-002   0.0000000000000000     
   8.1683836249260386E-002   2.5720290344962909E-002   0.0000000000000000     
   8.8905952879808098E-002   3.0266181868404154E-002   0.0000000000000000     
   5.8212277133813245E-002   1.2794015703810818E-002   0.0000000000000000     
   6.3554744429040605E-002   1.5948909795768518E-002   0.0000000000000000     
   6.8406154826365390E-002   2.0194406913370957E-002   0.0000000000000000     
   7.2766508325787585E-002   2.5530507056618135E-002   0.0000000000000000     
   7.6635804927307205E-002   3.1957210225510048E-002   0.0000000000000000     
  0.13492027616173896        5.1636578755347620E-002   0.0000000000000000     
  0.15582072613151055        6.6918476229327492E-002   0.0000000000000000     
  0.16256684015063017        7.2028999291334564E-002   0.0000000000000000     
  0.15515861821909793        6.6968147941368864E-002   0.0000000000000000     
  0.13359606033691374        5.1735922179430377E-002   0.0000000000000000     
  0.11804818849702399        4.0105866133322940E-002   0.0000000000000000     
  0.13346910013429567        5.0894195010305558E-002   0.0000000000000000     
  0.14041140528888141        6.0321911956453811E-002   0.0000000000000000     
  0.13887510396078115        6.8389016971767691E-002   0.0000000000000000     
  0.12886019614999497        7.5095510056247206E-002   0.0000000000000000     
  0.10271008073638037        3.2982400504341786E-002   0.0000000000000000     
  0.11348772142876314        4.1106088426652865E-002   0.0000000000000000     
  0.12016309905718048        5.2937709066581483E-002   0.0000000000000000     
  0.12273621362163240        6.8477262424127633E-002   0.0000000000000000     
  0.12120706512211885        8.7724748499291294E-002   0.0000000000000000     
   8.8905952879808098E-002   3.0266181868404154E-002   0.0000000000000000     
   9.5876590014912957E-002   3.7554156478369419E-002   0.0000000000000000     
  0.10182192145552747        4.9876390621717594E-002   0.0000000000000000     
  0.10674194720165162        6.7232884298448689E-002   0.0000000000000000     
  0.11063666725328540        8.9623637508562642E-002   0.0000000000000000     
   7.6635804927307205E-002   3.1957210225510048E-002   0.0000000000000000     
   8.0635705892745144E-002   4.0238399165455220E-002   0.0000000000000000     
   8.5387872483922364E-002   5.1137956621862136E-002   0.0000000000000000     
   9.0892304700838866E-002   6.4655882594730832E-002   0.0000000000000000     
   9.7149002543494622E-002   8.0792177084061279E-002   0.0000000000000000     
  0.13359606033691374        5.1735922179430377E-002   0.0000000000000000     
  0.11115168646455270        3.9440541714682059E-002   0.0000000000000000     
  0.10109801656248987        4.3190226256286872E-002   0.0000000000000000     
  0.10343505063072525        6.2984975804244808E-002   0.0000000000000000     
  0.11816278866925885        9.8824790358555903E-002   0.0000000000000000     
  0.12886019614999497        7.5095510056247206E-002   0.0000000000000000     
  0.11666010363813541        8.0983103747847091E-002   0.0000000000000000     
  0.10856824820681506        8.6593510584522054E-002   0.0000000000000000     
  0.10458462985603391        9.1926730566272138E-002   0.0000000000000000     
  0.10470924858579196        9.6982763693097315E-002   0.0000000000000000     
  0.12120706512211885        8.7724748499291294E-002   0.0000000000000000     
  0.11705742221529783       0.10437842765424034        0.0000000000000000     
  0.11176905355782728       0.11213656025114263        0.0000000000000000     
  0.10534195914970719       0.11099914628999807        0.0000000000000000     
   9.7776138990937581E-002  0.10096618577080677        0.0000000000000000     
  0.11063666725328540        8.9623637508562642E-002   0.0000000000000000     
  0.11234364219604001       0.10962651343386183        0.0000000000000000     
  0.11070043261552660       0.11981937525614850        0.0000000000000000     
  0.10570703851174516       0.12020222297542266        0.0000000000000000     
   9.7363459884695705E-002  0.11077505659168431        0.0000000000000000     
   9.7149002543494622E-002   8.0792177084061279E-002   0.0000000000000000     
  0.10251876358036190        9.6727361086711552E-002   0.0000000000000000     
  0.10536238537991294       0.10964195559953975        0.0000000000000000     
  0.10567986794214775       0.11953596062254584        0.0000000000000000     
  0.10347121126706632       0.12640937615572989        0.0000000000000000     
  0.11816278866925885        9.8824790358555903E-002   0.0000000000000000     
  0.12766889713564508       0.12848694472516481        0.0000000000000000     
  0.11434104248743841       0.12974871371001626        0.0000000000000000     
   7.8179224724638841E-002  0.10261009731311020        0.0000000000000000     
   1.9183443847246337E-002   4.7071095534446689E-002   0.0000000000000000     
  0.10470924858579196        9.6982763693097315E-002   0.0000000000000000     
  0.10194776937428776        9.9776446040382813E-002   0.0000000000000000     
   8.9305857199719854E-002   9.8322613683513777E-002   0.0000000000000000     
   6.6783512062088213E-002   9.2621266622490317E-002   0.0000000000000000     
   3.4380733961392851E-002   8.2672404857312309E-002   0.0000000000000000     
   9.7776138990937581E-002  0.10096618577080677        0.0000000000000000     
   8.8552331584312055E-002   8.9136852751374021E-002   0.0000000000000000     
   7.7151275432624261E-002   8.2610321289505115E-002   0.0000000000000000     
   6.3572970535874185E-002   8.1386591385200047E-002   0.0000000000000000     
   4.7817416894061854E-002   8.5465663038458844E-002   0.0000000000000000     
   9.7363459884695705E-002  0.11077505659168431        0.0000000000000000     
   8.7482583765717964E-002   9.6568164858138489E-002   0.0000000000000000     
   7.7877297186151648E-002   8.2611836527990215E-002   0.0000000000000000     
   6.8547600145996784E-002   6.8906071601239488E-002   0.0000000000000000     
   5.9493492645253346E-002   5.5450870077886294E-002   0.0000000000000000     
  0.10347121126706632       0.12640937615572989        0.0000000000000000     
   9.8738525918505460E-002  0.12207038236067619        0.0000000000000000     
   9.1483922460302014E-002   9.8327159398969091E-002   0.0000000000000000     
   8.1707400892455970E-002   5.5179707270608558E-002   0.0000000000000000     
   6.9408961214967313E-002  -7.3719740244053422E-003   0.0000000000000000     
   1.9183443847246337E-002   4.7071095534446689E-002   0.0000000000000000     
  -1.4278241954286237E-002   1.5208024444150987E-002   0.0000000000000000     
   2.6162225510493915E-002   5.9097200112348404E-002   0.0000000000000000     
  0.14050484624158682       0.17873862253903891        0.0000000000000000     
  0.32874962023899246       0.37413229172422258        0.0000000000000000     
   3.4380733961392851E-002   8.2672404857312309E-002   0.0000000000000000     
   8.6830964928928597E-003   7.8321014825914040E-002   0.0000000000000000     
   6.2761732518473168E-003   8.9412082966229711E-002   0.0000000000000000     
   2.7159964238256239E-002  0.11594560927825928        0.0000000000000000     
   7.1334469452119575E-002  0.15792159376200282        0.0000000000000000     
   4.7817416894061854E-002   8.5465663038458844E-002   0.0000000000000000     
   2.7628428965306793E-002   9.2196540118198611E-002   0.0000000000000000     
   7.4982120772855085E-004   9.8928226493336505E-002   0.0000000000000000     
  -3.2818406378672865E-002  0.10566072216387247        0.0000000000000000     
  -7.3076253793897483E-002  0.11239402712980656        0.0000000000000000     
   5.9493492645253346E-002   5.5450870077886294E-002   0.0000000000000000     
   4.2557755462955559E-002   5.6834600321004701E-002   0.0000000000000000     
   9.5831693781376227E-003   8.7645630693668750E-002   0.0000000000000000     
  -3.9430265609200453E-002  0.14788396119587843        0.0000000000000000     
 -0.10448254949905869       0.23754959182763377        0.0000000000000000     
   6.9408961214967313E-002  -7.3719740244053422E-003   0.0000000000000000     
   5.3471075985839146E-002  -2.7764804565667711E-002   0.0000000000000000     
   3.2776217763074524E-002   5.5564295567226522E-002   0.0000000000000000     
   7.3243865466734665E-003  0.24261532637427721        0.0000000000000000     
  -2.2884417663364048E-002  0.53338828785548453        0.0000000000000000     
   0.0000000000000000        0.0000000000000000        0.0000000000000000     
   4.1322189343798591E-003  -2.5286288296656799E-004   0.0000000000000000     
   8.4635642134401542E-003  -3.0320305627965389E-004   0.0000000000000000     
   1.2994035837180885E-002  -1.5102051993925758E-004   0.0000000000000000     
   1.7723633805602049E-002   2.0368472605462071E-004   0.0000000000000000     
   0.0000000000000000        0.0000000000000000        0.0000000000000000     
   3.7650428298869644E-003  -6.0752902295351950E-004   0.0000000000000000     
   7.7389813320228387E-003  -9.6017119659095023E-004   0.0000000000000000     
   1.1921815506407620E-002  -1.0579265209122932E-003   0.0000000000000000     
   1.6313545353041310E-002  -9.0079499591754744E-004   0.0000000000000000     
   0.0000000000000000        0.0000000000000000        0.0000000000000000     
   3.4321349908627194E-003  -8.9809145367618305E-004   0.0000000000000000     
   7.0481812946555098E-003  -1.4965501585802563E-003   0.0000000000000000     
   1.0848138911378374E-002  -1.7953761147122204E-003   0.0000000000000000     
   1.4832007841031308E-002  -1.7945693220720752E-003   0.0000000000000000     
   0.0000000000000000        0.0000000000000000        0.0000000000000000     
   3.1334954173071233E-003  -1.1245501751345588E-003   0.0000000000000000     
   6.3911641013381700E-003  -1.9123399422475719E-003   0.0000000000000000     
   9.7730060520931413E-003  -2.3633693013390394E-003   0.0000000000000000     
   1.3279021269572033E-002  -2.4776382524089621E-003   0.0000000000000000     
   0.0000000000000000        0.0000000000000000        0.0000000000000000     
   2.8691241092201783E-003  -1.2869051873286466E-003   0.0000000000000000     
   5.7679297520708194E-003  -2.2075405475928964E-003   0.0000000000000000     
   8.6964169285519248E-003  -2.7619060807927507E-003   0.0000000000000000     
   1.1654585638663492E-002  -2.9500017869282082E-003   0.0000000000000000     
   1.7723633805602049E-002   2.0368472605462071E-004   0.0000000000000000     
   2.2563347602466106E-002   8.0450589608029672E-004   0.0000000000000000     
   2.7424166711535518E-002   1.6950362045160859E-003   0.0000000000000000     
   3.2306091132810272E-002   2.8752756513619887E-003   0.0000000000000000     
   3.7209120866290378E-002   4.3452242366180047E-003   0.0000000000000000     
   1.6313545353041310E-002  -9.0079499591754744E-004   0.0000000000000000     
   2.0764533903797879E-002  -4.2505899373760422E-004   0.0000000000000000     
   2.5125144190551292E-002   4.3299911349664708E-004   0.0000000000000000     
   2.9395376213301554E-002   1.6733793257852050E-003   0.0000000000000000     
   3.3575229972048655E-002   3.2960816431280709E-003   0.0000000000000000     
   1.4832007841031308E-002  -1.7945693220720752E-003   0.0000000000000000     
   1.8848729364018636E-002  -1.4233306429605730E-003   0.0000000000000000     
   2.2747244760744679E-002  -6.1086093967846727E-004   0.0000000000000000     
   2.6527554031209436E-002   6.4283978777424284E-004   0.0000000000000000     
   3.0189657175412915E-002   2.3377715393975568E-003   0.0000000000000000     
   1.3279021269572033E-002  -2.4776382524089621E-003   0.0000000000000000     
   1.6815933983128369E-002  -2.1903090515886106E-003   0.0000000000000000     
   2.0290468422115668E-002  -1.4365439550092561E-003   0.0000000000000000     
   2.3702624586533938E-002  -2.1634296267089941E-004   0.0000000000000000     
   2.7052402476383169E-002   1.4702939254264608E-003   0.0000000000000000     
   1.1654585638663492E-002  -2.9500017869282082E-003   0.0000000000000000     
   1.4666147761127086E-002  -2.7259942196217165E-003   0.0000000000000000     
   1.7754815174664273E-002  -2.0440499324957200E-003   0.0000000000000000     
   2.0920587879275050E-002  -9.0416892555022035E-004   0.0000000000000000     
   2.4163465874959416E-002   6.9364880121478337E-004   0.0000000000000000     
   3.7209120866290378E-002   4.3452242366180047E-003   0.0000000000000000     
   4.2207004925197647E-002   6.0843760691633598E-003   0.0000000000000000     