 <VTKFile type="UnstructuredGrid"  version="0.1"   >
 <UnstructuredGrid>
 <Piece  NumberOfPoints="          1600 "  NumberOfCells="         1024 ">
 <Points>
 <DataArray  type="Float64" NumberOfComponents="3"  format="ascii" >
   0.0000000000000000        0.0000000000000000        0.0000000000000000     
   3.1250000000000000E-002   0.0000000000000000        0.0000000000000000     
   6.2500000000000000E-002   0.0000000000000000        0.0000000000000000     
   9.3750000000000000E-002   0.0000000000000000        0.0000000000000000     
  0.12500000000000000        0.0000000000000000        0.0000000000000000     
   0.0000000000000000        3.1250000000000000E-002   0.0000000000000000     
   3.1250000000000000E-002   3.1250000000000000E-002   0.0000000000000000     
   6.2500000000000000E-002   3.1250000000000000E-002   0.0000000000000000     
   9.3750000000000000E-002   3.1250000000000000E-002   0.0000000000000000     
  0.12500000000000000        3.1250000000000000E-002   0.0000000000000000     
   0.0000000000000000        6.2500000000000000E-002   0.0000000000000000     
   3.1250000000000000E-002   6.2500000000000000E-002   0.0000000000000000     
   6.2500000000000000E-002   6.2500000000000000E-002   0.0000000000000000     
   9.3750000000000000E-002   6.2500000000000000E-002   0.0000000000000000     
  0.12500000000000000        6.2500000000000000E-002   0.0000000000000000     
   0.0000000000000000        9.3750000000000000E-002   0.0000000000000000     
   3.1250000000000000E-002   9.3750000000000000E-002   0.0000000000000000     
   6.2500000000000000E-002   9.3750000000000000E-002   0.0000000000000000     
   9.3750000000000000E-002   9.3750000000000000E-002   0.0000000000000000     
  0.12500000000000000        9.3750000000000000E-002   0.0000000000000000     
   0.0000000000000000       0.12500000000000000        0.0000000000000000     
   3.1250000000000000E-002  0.12500000000000000        0.0000000000000000     
   6.2500000000000000E-002  0.12500000000000000        0.0000000000000000     
   9.3750000000000000E-002  0.12500000000000000        0.0000000000000000     
  0.12500000000000000       0.12500000000000000        0.0000000000000000     
  0.12500000000000000        0.0000000000000000        0.0000000000000000     
  0.15625000000000000        0.0000000000000000        0.0000000000000000     
  0.18750000000000000        0.0000000000000000        0.0000000000000000     
  0.21875000000000000        0.0000000000000000        0.0000000000000000     
  0.25000000000000000        0.0000000000000000        0.0000000000000000     
  0.12500000000000000        3.1250000000000000E-002   0.0000000000000000     
  0.15625000000000000        3.1250000000000000E-002   0.0000000000000000     
  0.18750000000000000        3.1250000000000000E-002   0.0000000000000000     
  0.21875000000000000        3.1250000000000000E-002   0.0000000000000000     
  0.25000000000000000        3.1250000000000000E-002   0.0000000000000000     
  0.12500000000000000        6.2500000000000000E-002   0.0000000000000000     
  0.15625000000000000        6.2500000000000000E-002   0.0000000000000000     
  0.18750000000000000        6.2500000000000000E-002   0.0000000000000000     
  0.21875000000000000        6.2500000000000000E-002   0.0000000000000000     
  0.25000000000000000        6.2500000000000000E-002   0.0000000000000000     
  0.12500000000000000        9.3750000000000000E-002   0.0000000000000000     
  0.15625000000000000        9.3750000000000000E-002   0.0000000000000000     
  0.18750000000000000        9.3750000000000000E-002   0.0000000000000000     
  0.21875000000000000        9.3750000000000000E-002   0.0000000000000000     
  0.25000000000000000        9.3750000000000000E-002   0.0000000000000000     
  0.12500000000000000       0.12500000000000000        0.0000000000000000     
  0.15625000000000000       0.12500000000000000        0.0000000000000000     
  0.18750000000000000       0.12500000000000000        0.0000000000000000     
  0.21875000000000000       0.12500000000000000        0.0000000000000000     
  0.25000000000000000       0.12500000000000000        0.0000000000000000     
  0.25000000000000000        0.0000000000000000        0.0000000000000000     
  0.28125000000000000        0.0000000000000000        0.0000000000000000     
  0.31250000000000000        0.0000000000000000        0.0000000000000000     
  0.34375000000000000        0.0000000000000000        0.0000000000000000     
  0.37500000000000000        0.0000000000000000        0.0000000000000000     
  0.25000000000000000        3.1250000000000000E-002   0.0000000000000000     
  0.28125000000000000        3.1250000000000000E-002   0.0000000000000000     
  0.31250000000000000        3.1250000000000000E-002   0.0000000000000000     
  0.34375000000000000        3.1250000000000000E-002   0.0000000000000000     
  0.37500000000000000        3.1250000000000000E-002   0.0000000000000000     
  0.25000000000000000        6.2500000000000000E-002   0.0000000000000000     
  0.28125000000000000        6.2500000000000000E-002   0.0000000000000000     
  0.31250000000000000        6.2500000000000000E-002   0.0000000000000000     
  0.34375000000000000        6.2500000000000000E-002   0.0000000000000000     
  0.37500000000000000        6.2500000000000000E-002   0.0000000000000000     
  0.25000000000000000        9.3750000000000000E-002   0.0000000000000000     
  0.28125000000000000        9.3750000000000000E-002   0.0000000000000000     
  0.31250000000000000        9.3750000000000000E-002   0.0000000000000000     
  0.34375000000000000        9.3750000000000000E-002   0.0000000000000000     
  0.37500000000000000        9.3750000000000000E-002   0.0000000000000000     
  0.25000000000000000       0.12500000000000000        0.0000000000000000     
  0.28125000000000000       0.12500000000000000        0.0000000000000000     
  0.31250000000000000       0.12500000000000000        0.0000000000000000     
  0.34375000000000000       0.12500000000000000        0.0000000000000000     
  0.37500000000000000       0.12500000000000000        0.0000000000000000     
  0.37500000000000000        0.0000000000000000        0.0000000000000000     
  0.40625000000000000        0.0000000000000000        0.0000000000000000     
  0.43750000000000000        0.0000000000000000        0.0000000000000000     
  0.46875000000000000        0.0000000000000000        0.0000000000000000     
  0.50000000000000000        0.0000000000000000        0.0000000000000000     
  0.37500000000000000        3.1250000000000000E-002   0.0000000000000000     
  0.40625000000000000        3.1250000000000000E-002   0.0000000000000000     
  0.43750000000000000        3.1250000000000000E-002   0.0000000000000000     
  0.46875000000000000        3.1250000000000000E-002   0.0000000000000000     
  0.50000000000000000        3.1250000000000000E-002   0.0000000000000000     
  0.37500000000000000        6.2500000000000000E-002   0.0000000000000000     
  0.40625000000000000        6.2500000000000000E-002   0.0000000000000000     
  0.43750000000000000        6.2500000000000000E-002   0.0000000000000000     
  0.46875000000000000        6.2500000000000000E-002   0.0000000000000000     
  0.50000000000000000        6.2500000000000000E-002   0.0000000000000000     
  0.37500000000000000        9.3750000000000000E-002   0.0000000000000000     
  0.40625000000000000        9.3750000000000000E-002   0.0000000000000000     
  0.43750000000000000        9.3750000000000000E-002   0.0000000000000000     
  0.46875000000000000        9.3750000000000000E-002   0.0000000000000000     
  0.50000000000000000        9.3750000000000000E-002   0.0000000000000000     
  0.37500000000000000       0.12500000000000000        0.0000000000000000     
  0.40625000000000000       0.12500000000000000        0.0000000000000000     
  0.43750000000000000       0.12500000000000000        0.0000000000000000     
  0.46875000000000000       0.12500000000000000        0.0000000000000000     
  0.50000000000000000       0.12500000000000000        0.0000000000000000     
  0.50000000000000000        0.0000000000000000        0.0000000000000000     
  0.53125000000000000        0.0000000000000000        0.0000000000000000     
  0.56250000000000000        0.0000000000000000        0.0000000000000000     
  0.59375000000000000        0.0000000000000000        0.0000000000000000     
  0.62500000000000000        0.0000000000000000        0.0000000000000000     
  0.50000000000000000        3.1250000000000000E-002   0.0000000000000000     
  0.53125000000000000        3.1250000000000000E-002   0.0000000000000000     
  0.56250000000000000        3.1250000000000000E-002   0.0000000000000000     
  0.59375000000000000        3.1250000000000000E-002   0.0000000000000000     
  0.62500000000000000        3.1250000000000000E-002   0.0000000000000000     
  0.50000000000000000        6.2500000000000000E-002   0.0000000000000000     
  0.53125000000000000        6.2500000000000000E-002   0.0000000000000000     
  0.56250000000000000        6.2500000000000000E-002   0.0000000000000000     
  0.59375000000000000        6.2500000000000000E-002   0.0000000000000000     
  0.62500000000000000        6.2500000000000000E-002   0.0000000000000000     
  0.50000000000000000        9.3750000000000000E-002   0.0000000000000000     
  0.53125000000000000        9.3750000000000000E-002   0.0000000000000000     
  0.56250000000000000        9.3750000000000000E-002   0.0000000000000000     
  0.59375000000000000        9.3750000000000000E-002   0.0000000000000000     
  0.62500000000000000        9.3750000000000000E-002   0.0000000000000000     
  0.50000000000000000       0.12500000000000000        0.0000000000000000     
  0.53125000000000000       0.12500000000000000        0.0000000000000000     
  0.56250000000000000       0.12500000000000000        0.0000000000000000     
[...]
 <PointData>
 <DataArray  type="Float64" Name="disp" NumberOfComponents="3" format="ascii">
   0.0000000000000000        0.0000000000000000        0.0000000000000000     
   6.0958829531654263E-003   3.7905296002480517E-003   0.0000000000000000     
   1.1665921927170288E-002   7.3239460853303396E-003   0.0000000000000000     
   1.6710116922014587E-002   1.0600249455246862E-002   0.0000000000000000     
   2.1228467937698323E-002   1.3619439709997620E-002   0.0000000000000000     
   0.0000000000000000        0.0000000000000000        0.0000000000000000     
   4.8911316419297758E-003   3.0221828078924951E-003   0.0000000000000000     
   9.5736260770013966E-003   6.0605681728720809E-003   0.0000000000000000     
   1.4047483305214856E-002   9.1151560949387575E-003   0.0000000000000000     
   1.8312703326570163E-002   1.2185946574092525E-002   0.0000000000000000     
   0.0000000000000000        0.0000000000000000        0.0000000000000000     
   3.9535809695023516E-003   2.4251136687965121E-003   0.0000000000000000     
   7.9106531441450988E-003   5.0628839404367231E-003   0.0000000000000000     
   1.1871216523928240E-002   7.9133108149206325E-003   0.0000000000000000     
   1.5835271108851776E-002   1.0976394292248240E-002   0.0000000000000000     
   0.0000000000000000        0.0000000000000000        0.0000000000000000     
   3.2832309358831534E-003   1.9993221829601019E-003   0.0000000000000000     
   6.6770031286013986E-003   4.3308933880242635E-003   0.0000000000000000     
   1.0181316578154737E-002   6.9947136151924869E-003   0.0000000000000000     
   1.3796171284543166E-002   9.9907828644647673E-003   0.0000000000000000     
   0.0000000000000000        0.0000000000000000        0.0000000000000000     
   2.8800815410721806E-003   1.7448083503832648E-003   0.0000000000000000     
   5.8726760303702968E-003   3.8645965156347039E-003   0.0000000000000000     
   8.9777834678943479E-003   6.3593644957543171E-003   0.0000000000000000     
   1.2195403853644333E-002   9.2291122907421051E-003   0.0000000000000000     
   2.1228467937698323E-002   1.3619439709997620E-002   0.0000000000000000     
   2.5433705259796144E-002   1.6612265930825945E-002   0.0000000000000000     
   2.9538559173882692E-002   1.9809477198975162E-002   0.0000000000000000     
   3.3543029679957967E-002   2.3211073514445273E-002   0.0000000000000000     
   3.7447116778021976E-002   2.6817054877236284E-002   0.0000000000000000     
   1.8312703326570163E-002   1.2185946574092525E-002   0.0000000000000000     
   2.2407423776579550E-002   1.5341358425775263E-002   0.0000000000000000     
   2.6369782290755265E-002   1.8649810465428851E-002   0.0000000000000000     
   3.0199778869097305E-002   2.2111302693053288E-002   0.0000000000000000     
   3.3897413511605669E-002   2.5725835108648572E-002   0.0000000000000000     
   1.5835271108851776E-002   1.0976394292248240E-002   0.0000000000000000     
   1.9731007202510264E-002   1.4210965873145329E-002   0.0000000000000000     
   2.3486615108498258E-002   1.7575857058337682E-002   0.0000000000000000     
   2.7102094826815762E-002   2.1071067847825298E-002   0.0000000000000000     
   3.0577446357462772E-002   2.4696598241608178E-002   0.0000000000000000     
   1.3796171284543166E-002   9.9907828644647673E-003   0.0000000000000000     
   1.7404455537588279E-002   1.3221088272936147E-002   0.0000000000000000     
   2.0889057627111674E-002   1.6587616977701662E-002   0.0000000000000000     
   2.4249977553113342E-002   2.0090368978761316E-002   0.0000000000000000     
   2.7487215315593286E-002   2.3729344276115102E-002   0.0000000000000000     
   1.2195403853644333E-002   9.2291122907421051E-003   0.0000000000000000     
   1.5427768781813603E-002   1.2371725625147713E-002   0.0000000000000000     
   1.8577109846595503E-002   1.5685090223520791E-002   0.0000000000000000     
   2.1643427047990042E-002   1.9169206085861330E-002   0.0000000000000000     
   2.4626720385997208E-002   2.2824073212169341E-002   0.0000000000000000     
   3.7447116778021976E-002   2.6817054877236284E-002   0.0000000000000000     
   4.1255554282507004E-002   3.0622456515440655E-002   0.0000000000000000     
   4.4973076007845364E-002   3.4622313657150870E-002   0.0000000000000000     
   4.8599681954037029E-002   3.8816626302366916E-002   0.0000000000000000     
   5.2135372121082026E-002   4.3205394451088813E-002   0.0000000000000000     
   3.3897413511605669E-002   2.5725835108648572E-002   0.0000000000000000     
   3.7486107743382228E-002   2.9522089482921583E-002   0.0000000000000000     
   4.0989283089528837E-002   3.3528747586579200E-002   0.0000000000000000     
   4.4406939550045509E-002   3.7745809419621398E-002   0.0000000000000000     
   4.7739077124932229E-002   4.2173274982048224E-002   0.0000000000000000     
   3.0577446357462772E-002   2.4696598241608178E-002   0.0000000000000000     
   3.3942261524144181E-002   2.8496977682401049E-002   0.0000000000000000     
   3.7226132150564854E-002   3.2516735612918624E-002   0.0000000000000000     
   4.0429058236724796E-002   3.6755872033160913E-002   0.0000000000000000     
   4.3551039782624014E-002   4.1214386943127922E-002   0.0000000000000000     
   2.7487215315593286E-002   2.3729344276115102E-002   0.0000000000000000     
   3.0624015624792850E-002   2.7547121113879046E-002   0.0000000000000000     
   3.3683623190953395E-002   3.1586277736169156E-002   0.0000000000000000     
   3.6666038014074906E-002   3.5846814142985454E-002   0.0000000000000000     
   3.9571260094157394E-002   4.0328730334327920E-002   0.0000000000000000     
   2.4626720385997208E-002   2.2824073212169341E-002   0.0000000000000000     
   2.7531370045328268E-002   2.6672519777355571E-002   0.0000000000000000     
   3.0361756210694476E-002   3.0737373956330798E-002   0.0000000000000000     
   3.3117878882095830E-002   3.5018635749095008E-002   0.0000000000000000     
   3.5799738059532342E-002   3.9516305155648204E-002   0.0000000000000000     
   5.2135372121082026E-002   4.3205394451088813E-002   0.0000000000000000     
   5.5576282342059885E-002   4.7793823708602856E-002   0.0000000000000000     
   5.8918548450050165E-002   5.2587119680195374E-002   0.0000000000000000     
   6.2162170445052872E-002   5.7585282365866360E-002   0.0000000000000000     
   6.5307148327067979E-002   6.2788311765615820E-002   0.0000000000000000     
   4.7739077124932229E-002   4.2173274982048224E-002   0.0000000000000000     
   5.0980629894366497E-002   4.6805001079432654E-002   0.0000000000000000     
   5.4126531938525797E-002   5.1634844517347706E-002   0.0000000000000000     
   5.7176783257410130E-002   5.6662805295793393E-002   0.0000000000000000     
   6.0131383851019508E-002   6.1888883414769724E-002   0.0000000000000000     
   4.3551039782624014E-002   4.1214386943127922E-002   0.0000000000000000     
   4.6587066877377216E-002   4.5879891084368733E-002   0.0000000000000000     
   4.9532129610099125E-002   5.0739995198432440E-002   0.0000000000000000     
   5.2386227980789714E-002   5.5794699285319070E-002   0.0000000000000000     
   5.5149361989449010E-002   6.1044003345028595E-002   0.0000000000000000     
   3.9571260094157394E-002   4.0328730334327920E-002   0.0000000000000000     
   4.2395593291092049E-002   4.5018493723411115E-002   0.0000000000000000     
   4.5135341464770128E-002   4.9902571723449592E-002   0.0000000000000000     
   4.7790504615191610E-002   5.4980964334443362E-002   0.0000000000000000     
   5.0361082742356497E-002   6.0253671556392427E-002   0.0000000000000000     
   3.5799738059532342E-002   3.9516305155648204E-002   0.0000000000000000     
   3.8406209135511009E-002   4.4220808996559786E-002   0.0000000000000000     
   4.0936167502538839E-002   4.9122574092399153E-002   0.0000000000000000     
   4.3389613160615827E-002   5.4221600443166297E-002   0.0000000000000000     
   4.5766546109741978E-002   5.9517888048861219E-002   0.0000000000000000     
   6.5307148327067979E-002   6.2788311765615820E-002   0.0000000000000000     
   6.8359975390851424E-002   6.8181691906414946E-002   0.0000000000000000     
   7.1327144931159131E-002   7.3750906815234912E-002   0.0000000000000000     
   7.4208656947991045E-002   7.9495956492075762E-002   0.0000000000000000     
   7.7004511441347234E-002   8.5416840936937452E-002   0.0000000000000000     
   6.0131383851019508E-002   6.1888883414769724E-002   0.0000000000000000     
   6.2997983610741534E-002   6.7303594680576201E-002   0.0000000000000000     
   6.5784232427963871E-002   7.2897454899512354E-002   0.0000000000000000     
   6.8490130302686497E-002   7.8670464071578156E-002   0.0000000000000000     
   7.1115677234909414E-002   8.4622622196773661E-002   0.0000000000000000     
   5.5149361989449010E-002   6.1044003345028595E-002   0.0000000000000000     
   5.7829309133227133E-002   6.6481193612649231E-002   0.0000000000000000     
   6.0433846909274246E-002   7.2099556323269171E-002   0.0000000000000000     
   6.2962975317590333E-002   7.7899091476888449E-002   0.0000000000000000     
   6.5416694358175390E-002   8.3879799073507039E-002   0.0000000000000000     
   5.0361082742356497E-002   6.0253671556392427E-002   0.0000000000000000     
   5.2853951958308235E-002   6.5714488702634022E-002   0.0000000000000000     
   5.5275988375090256E-002   7.1357211086505390E-002   0.0000000000000000     
   5.7627191992702574E-002   7.7181838708006587E-002   0.0000000000000000     
   5.9907562811145183E-002   8.3188371567137556E-002   0.0000000000000000     
   4.5766546109741978E-002   5.9517888048861219E-002   0.0000000000000000     
   4.8071912085984818E-002   6.5003479950530574E-002   0.0000000000000000     
   5.0310656825411901E-002   7.0670419189221040E-002   0.0000000000000000     
   5.2482780328023212E-002   7.6518705764932582E-002   0.0000000000000000     
   5.4588282593818760E-002   8.2548339677665214E-002   0.0000000000000000     
   7.7004511441347234E-002   8.5416840936937452E-002   0.0000000000000000     
   7.9700880233539398E-002   9.1506468185088133E-002   0.0000000000000000     
   8.2283935146879275E-002   9.7757746271795953E-002   0.0000000000000000     
   8.4753676181366866E-002  0.10417067519706091        0.0000000000000000     
   8.7110103337002170E-002  0.11074525496088299        0.0000000000000000     
   7.1115677234909414E-002   8.4622622196773661E-002   0.0000000000000000     
   7.3646899637148600E-002   9.0743990322020629E-002   0.0000000000000000     
   7.6069823921920007E-002   9.7024629494240913E-002   0.0000000000000000     
   7.8384450089223637E-002  0.10346453971343444        0.0000000000000000     
   8.0590778139059488E-002  0.11006372097960129        0.0000000000000000     
   6.5416694358175390E-002   8.3879799073507039E-002   0.0000000000000000     
   6.7781495136121014E-002   9.0029936106805375E-002   0.0000000000000000     
   7.0043868756518773E-002   9.6337759570463935E-002   0.0000000000000000     
   7.2203815219368667E-002  0.10280326946448272        0.0000000000000000     
   7.4261334524670680E-002  0.10942646578886173        0.0000000000000000     
   5.9907562811145183E-002   8.3188371567137556E-002   0.0000000000000000     
   6.2104666730456649E-002   8.9364305539442357E-002   0.0000000000000000     
   6.4206069650675573E-002   9.5697136500465074E-002   0.0000000000000000     
   6.6211771571801928E-002  0.10218686445020572        0.0000000000000000     
   6.8121772493835761E-002  0.10883348938866429        0.0000000000000000     
   5.4588282593818760E-002   8.2548339677665214E-002   0.0000000000000000     
   5.6616414420155511E-002   8.8747098619931589E-002   0.0000000000000000     
   5.8556426604390407E-002   9.5102760284244331E-002   0.0000000000000000     
   6.0408319146523483E-002  0.10161532467060348        0.0000000000000000     
   6.2172092046554710E-002  0.10828479177900902        0.0000000000000000     
   8.7110103337002170E-002  0.11074525496088299        0.0000000000000000     
   8.9375570191542519E-002  0.11746547580202886        0.0000000000000000     
   9.1572430322745244E-002  0.12431532795926517        0.0000000000000000     
   9.3700683730610357E-002  0.13129481143259195        0.0000000000000000     
   9.5760330415137845E-002  0.13840392622200914        0.0000000000000000     
   8.0590778139059488E-002  0.11006372097960129        0.0000000000000000     
   8.2712962899761905E-002  0.11680845681597160        0.0000000000000000     
   8.4775159199665204E-002  0.12368503074577562        0.0000000000000000     
   8.6777367038769398E-002  0.13069344276901332        0.0000000000000000     
   8.8719586417074489E-002  0.13783369288568476        0.0000000000000000     
   7.4261334524670680E-002  0.10942646578886173        0.0000000000000000     
   7.6240865423804968E-002  0.11619518417673635        0.0000000000000000     
   7.8166846668151713E-002  0.12309726026124207        0.0000000000000000     
   8.0039278257710844E-002  0.13013269404237887        0.0000000000000000     
   8.1858160192482418E-002  0.13730148552014668        0.0000000000000000     
   6.8121772493835761E-002  0.10883348938866429        0.0000000000000000     
   6.9959277763671793E-002  0.11562565788432309        0.0000000000000000     
   7.1747492728204756E-002  0.12255201650566445        0.0000000000000000     
   7.3486417387434694E-002  0.12961256525268838        0.0000000000000000     
   7.5176051741361619E-002  0.13680730412539491        0.0000000000000000     
   6.2172092046554710E-002  0.10828479177900902        0.0000000000000000     
   6.3868199919362267E-002  0.11509987793873180        0.0000000000000000     
   6.5517097379824363E-002  0.12204929947904283        0.0000000000000000     
   6.7118784427940961E-002  0.12913305639994202        0.0000000000000000     
   6.8673261063712090E-002  0.13635114870142945        0.0000000000000000     
   9.5760330415137845E-002  0.13840392622200914        0.0000000000000000     
   9.7718927708565231E-002  0.14563460862903266        0.0000000000000000     
   9.9544032943130079E-002  0.15297879495517833        0.0000000000000000     
  0.10123564611883237       0.16043648520044609        0.0000000000000000     
  0.10279376723567211       0.16800767936483596        0.0000000000000000     
   8.8719586417074489E-002  0.13783369288568476        0.0000000000000000     
   9.0562401588150515E-002  0.14509507574409380        0.0000000000000000     
   9.2266396805567460E-002  0.15246688599254443        0.0000000000000000     
   9.3831572069325422E-002  0.15994912363103664        0.0000000000000000     
   9.5257927379424318E-002  0.16754178865957042        0.0000000000000000     
   8.1858160192482418E-002  0.13730148552014668        0.0000000000000000     
   8.3581225539008361E-002  0.14459121008218029        0.0000000000000000     
   8.5166207363830654E-002  0.15198944311611448        0.0000000000000000     
   8.6613105666949283E-002  0.15949618462194917        0.0000000000000000     
   8.7921920448364263E-002  0.16711143459968442        0.0000000000000000     
   7.5176051741361619E-002  0.13680730412539491        0.0000000000000000     
   7.6775399561138796E-002  0.14412301164329216        0.0000000000000000     
   7.8243464617919603E-002  0.15154646632588845        0.0000000000000000     
   7.9580246911703956E-002  0.15907766817318375        0.0000000000000000     
   8.0785746442491924E-002  0.16671661718517800        0.0000000000000000     
   6.8673261063712090E-002  0.13635114870142945        0.0000000000000000     
   7.0144923654541835E-002  0.14369048042742941        0.0000000000000000     
   7.1498168567834294E-002  0.15113795562186638        0.0000000000000000     
   7.2732995803589467E-002  0.15869357428474026        0.0000000000000000     
   7.3849405361807355E-002  0.16635733641605119        0.0000000000000000     
   0.0000000000000000        0.0000000000000000        0.0000000000000000     
   2.8800815410721806E-003   1.7448083503832648E-003   0.0000000000000000     
   5.8726760303702968E-003   3.8645965156347039E-003   0.0000000000000000     
   8.9777834678943479E-003   6.3593644957543171E-003   0.0000000000000000     
   1.2195403853644333E-002   9.2291122907421051E-003   0.0000000000000000     
   0.0000000000000000        0.0000000000000000        0.0000000000000000     
   2.6103087929010360E-003   1.5889027910652156E-003   0.0000000000000000     
   5.2897171650241742E-003   3.5566683323469532E-003   0.0000000000000000     
   8.0382251163694119E-003   5.9032966238452113E-003   0.0000000000000000     
   1.0855832646936752E-002   8.6287876655599897E-003   0.0000000000000000     
   0.0000000000000000        0.0000000000000000        0.0000000000000000     
   2.3400886992013216E-003   1.4589361250051706E-003   0.0000000000000000     
   4.7201718481354104E-003   3.2997838472399194E-003   0.0000000000000000     
   7.1402494468022683E-003   5.5225431667042472E-003   0.0000000000000000     
   9.6003214952018936E-003   8.1272140833981536E-003   0.0000000000000000     
   0.0000000000000000        0.0000000000000000        0.0000000000000000     
   2.0694212599730371E-003   1.3549083522031286E-003   0.0000000000000000     
   4.1640400797040089E-003   3.0939430603136048E-003   0.0000000000000000     
   6.2838564591929155E-003   5.2171041243314282E-003   0.0000000000000000     
   8.4288703984397566E-003   7.7243915442565987E-003   0.0000000000000000     
   0.0000000000000000        0.0000000000000000        0.0000000000000000     
   1.7983064752161828E-003   1.2768194726590905E-003   0.0000000000000000     
   3.6213218597299680E-003   2.9391459715680077E-003   0.0000000000000000     
   5.4690461535413550E-003   4.9869794967267516E-003   0.0000000000000000     
   7.3414793566503453E-003   7.4203200481353232E-003   0.0000000000000000     
   1.2195403853644333E-002   9.2291122907421051E-003   0.0000000000000000     
   1.5427768781813603E-002   1.2371725625147713E-002   0.0000000000000000     
   1.8577109846595503E-002   1.5685090223520791E-002   0.0000000000000000     
   2.1643427047990042E-002   1.9169206085861330E-002   0.0000000000000000     
   2.4626720385997208E-002   2.2824073212169341E-002   0.0000000000000000     
   1.0855832646936752E-002   8.6287876655599897E-003   0.0000000000000000     
   1.3689149050000021E-002   1.1650833350666544E-002   0.0000000000000000     
   1.6484783618833043E-002   1.4887125572340126E-002   0.0000000000000000     
   1.9242736353435822E-002   1.8337664330580740E-002   0.0000000000000000     
   2.1963007253808356E-002   2.2002449625388380E-002   0.0000000000000000     
   9.6003214952018936E-003   8.1272140833981536E-003   0.0000000000000000     
   1.2076798456961317E-002   1.1046366870379147E-002   0.0000000000000000     
   1.4546090795707565E-002   1.4212571800704744E-002   0.0000000000000000     
   1.7008198511440645E-002   1.7625828874374937E-002   0.0000000000000000     
   1.9463121604160555E-002   2.1286138091389725E-002   0.0000000000000000     
   8.4288703984397566E-003   7.7243915442565987E-003   0.0000000000000000     
   1.0590717002697493E-002   1.0558326184285529E-002   0.0000000000000000     
   1.2761031377219076E-002   1.3661428908614635E-002   0.0000000000000000     
   1.4939813522004507E-002   1.7033699717243913E-002   0.0000000000000000     
   1.7127063437053790E-002   2.0675138610173369E-002   0.0000000000000000     
   7.3414793566503453E-003   7.4203200481353232E-003   0.0000000000000000     
   9.2309046872085469E-003   1.0186711292385686E-002   0.0000000000000000     
   1.1129605363367571E-002   1.3233696896069805E-002   0.0000000000000000     
   1.3037581385127414E-002   1.6561276859187683E-002   0.0000000000000000     
   1.4954832752488078E-002   2.0169451181739313E-002   0.0000000000000000     
   2.4626720385997208E-002   2.2824073212169341E-002   0.0000000000000000     
   2.7531370045328268E-002   2.6672519777355571E-002   0.0000000000000000     