 <VTKFile type="UnstructuredGrid"  version="0.1"   >
 <UnstructuredGrid>
 <Piece  NumberOfPoints="          1600 "  NumberOfCells="         1024 ">
 <Points>
 <DataArray  type="Float64" NumberOfComponents="3"  format="ascii" >
   0.0000000000000000        0.0000000000000000        0.0000000000000000     
   3.1250000000000000E-002   0.0000000000000000        0.0000000000000000     
   6.2500000000000000E-002   0.0000000000000000        0.0000000000000000     
   9.3750000000000000E-002   0.0000000000000000        0.0000000000000000     
  0.12500000000000000        0.0000000000000000        0.0000000000000000     
   0.0000000000000000        3.1250000000000000E-002   0.0000000000000000     
   3.1250000000000000E-002   3.1250000000000000E-002   0.0000000000000000     
   6.2500000000000000E-002   3.1250000000000000E-002   0.0000000000000000     
   9.3750000000000000E-002   3.1250000000000000E-002   0.0000000000000000     
  0.12500000000000000        3.1250000000000000E-002   0.0000000000000000     
   0.0000000000000000        6.2500000000000000E-002   0.0000000000000000     
   3.1250000000000000E-002   6.2500000000000000E-002   0.0000000000000000     
   6.2500000000000000E-002   6.2500000000000000E-002   0.0000000000000000     
   9.3750000000000000E-002   6.2500000000000000E-002   0.0000000000000000     
  0.12500000000000000        6.2500000000000000E-002   0.0000000000000000     
   0.0000000000000000        9.3750000000000000E-002   0.0000000000000000     
   3.1250000000000000E-002   9.3750000000000000E-002   0.0000000000000000     
   6.2500000000000000E-002   9.3750000000000000E-002   0.0000000000000000     
   9.3750000000000000E-002   9.3750000000000000E-002   0.0000000000000000     
  0.12500000000000000        9.3750000000000000E-002   0.0000000000000000     
   0.0000000000000000       0.12500000000000000        0.0000000000000000     
   3.1250000000000000E-002  0.12500000000000000        0.0000000000000000     
   6.2500000000000000E-002  0.12500000000000000        0.0000000000000000     
   9.3750000000000000E-002  0.12500000000000000        0.0000000000000000     
  0.12500000000000000       0.12500000000000000        0.0000000000000000     
  0.12500000000000000        0.0000000000000000        0.0000000000000000     
  0.15625000000000000        0.0000000000000000        0.0000000000000000     
  0.18750000000000000        0.0000000000000000        0.0000000000000000     
  0.21875000000000000        0.0000000000000000        0.0000000000000000     
  0.25000000000000000        0.0000000000000000        0.0000000000000000     
  0.12500000000000000        3.1250000000000000E-002   0.0000000000000000     
  0.15625000000000000        3.1250000000000000E-002   0.0000000000000000     
  0.18750000000000000        3.1250000000000000E-002   0.0000000000000000     
  0.21875000000000000        3.1250000000000000E-002   0.0000000000000000     
  0.25000000000000000        3.1250000000000000E-002   0.0000000000000000     
  0.12500000000000000        6.2500000000000000E-002   0.0000000000000000     
  0.15625000000000000        6.2500000000000000E-002   0.0000000000000000     
  0.18750000000000000        6.2500000000000000E-002   0.0000000000000000     
  0.21875000000000000        6.2500000000000000E-002   0.0000000000000000     
  0.25000000000000000        6.2500000000000000E-002   0.0000000000000000     
  0.12500000000000000        9.3750000000000000E-002   0.0000000000000000     
  0.15625000000000000        9.3750000000000000E-002   0.0000000000000000     
  0.18750000000000000        9.3750000000000000E-002   0.0000000000000000     
  0.21875000000000000        9.3750000000000000E-002   0.0000000000000000     
  0.25000000000000000        9.3750000000000000E-002   0.0000000000000000     
  0.12500000000000000       0.12500000000000000        0.0000000000000000     
  0.15625000000000000       0.12500000000000000        0.0000000000000000     
  0.18750000000000000       0.12500000000000000        0.0000000000000000     
  0.21875000000000000       0.12500000000000000        0.0000000000000000     
  0.25000000000000000       0.12500000000000000        0.0000000000000000     
  0.25000000000000000        0.0000000000000000        0.0000000000000000     
  0.28125000000000000        0.0000000000000000        0.0000000000000000     
  0.31250000000000000        0.0000000000000000        0.0000000000000000     
  0.34375000000000000        0.0000000000000000        0.0000000000000000     
  0.37500000000000000        0.0000000000000000        0.0000000000000000     
  0.25000000000000000        3.1250000000000000E-002   0.0000000000000000     
  0.28125000000000000        3.1250000000000000E-002   0.0000000000000000     
  0.31250000000000000        3.1250000000000000E-002   0.0000000000000000     
  0.34375000000000000        3.1250000000000000E-002   0.0000000000000000     
  0.37500000000000000        3.1250000000000000E-002   0.0000000000000000     
  0.25000000000000000        6.2500000000000000E-002   0.0000000000000000     
  0.28125000000000000        6.2500000000000000E-002   0.0000000000000000     
  0.31250000000000000        6.2500000000000000E-002   0.0000000000000000     
  0.34375000000000000        6.2500000000000000E-002   0.0000000000000000     
  0.37500000000000000        6.2500000000000000E-002   0.0000000000000000     
  0.25000000000000000        9.3750000000000000E-002   0.0000000000000000     
  0.28125000000000000        9.3750000000000000E-002   0.0000000000000000     
  0.31250000000000000        9.3750000000000000E-002   0.0000000000000000     
  0.34375000000000000        9.3750000000000000E-002   0.0000000000000000     
  0.37500000000000000        9.3750000000000000E-002   0.0000000000000000     
  0.25000000000000000       0.12500000000000000        0.0000000000000000     
  0.28125000000000000       0.12500000000000000        0.0000000000000000     
  0.31250000000000000       0.12500000000000000        0.0000000000000000     
  0.34375000000000000       0.12500000000000000        0.0000000000000000     
  0.37500000000000000       0.12500000000000000        0.0000000000000000     
  0.37500000000000000        0.0000000000000000        0.0000000000000000     
  0.40625000000000000        0.0000000000000000        0.0000000000000000     
  0.43750000000000000        0.0000000000000000        0.0000000000000000     
  0.46875000000000000        0.0000000000000000        0.0000000000000000     
  0.50000000000000000        0.0000000000000000        0.0000000000000000     
  0.37500000000000000        3.1250000000000000E-002   0.0000000000000000     
  0.40625000000000000        3.1250000000000000E-002   0.0000000000000000     
  0.43750000000000000        3.1250000000000000E-002   0.0000000000000000     
  0.46875000000000000        3.1250000000000000E-002   0.0000000000000000     
  0.50000000000000000        3.1250000000000000E-002   0.0000000000000000     
  0.37500000000000000        6.2500000000000000E-002   0.0000000000000000     
  0.40625000000000000        6.2500000000000000E-002   0.0000000000000000     
  0.43750000000000000        6.2500000000000000E-002   0.0000000000000000     
  0.46875000000000000        6.2500000000000000E-002   0.0000000000000000     
  0.50000000000000000        6.2500000000000000E-002   0.0000000000000000     
  0.37500000000000000        9.3750000000000000E-002   0.0000000000000000     
  0.40625000000000000        9.3750000000000000E-002   0.0000000000000000     
  0.43750000000000000        9.3750000000000000E-002   0.0000000000000000     
  0.46875000000000000        9.3750000000000000E-002   0.0000000000000000     
  0.50000000000000000        9.3750000000000000E-002   0.0000000000000000     
  0.37500000000000000       0.12500000000000000        0.0000000000000000     
  0.40625000000000000       0.12500000000000000        0.0000000000000000     
  0.43750000000000000       0.12500000000000000        0.0000000000000000     
  0.46875000000000000       0.12500000000000000        0.0000000000000000     
  0.50000000000000000       0.12500000000000000        0.0000000000000000     
  0.50000000000000000        0.0000000000000000        0.0000000000000000     
  0.53125000000000000        0.0000000000000000        0.0000000000000000     
  0.56250000000000000        0.0000000000000000        0.0000000000000000     
  0.59375000000000000        0.0000000000000000        0.0000000000000000     
  0.62500000000000000        0.0000000000000000        0.0000000000000000     
  0.50000000000000000        3.1250000000000000E-002   0.0000000000000000     
  0.53125000000000000        3.1250000000000000E-002   0.0000000000000000     
  0.56250000000000000        3.1250000000000000E-002   0.0000000000000000     
  0.59375000000000000        3.1250000000000000E-002   0.0000000000000000     
  0.62500000000000000        3.1250000000000000E-002   0.0000000000000000     
  0.50000000000000000        6.2500000000000000E-002   0.0000000000000000     
  0.53125000000000000        6.2500000000000000E-002   0.0000000000000000     
  0.56250000000000000        6.2500000000000000E-002   0.0000000000000000     
  0.59375000000000000        6.2500000000000000E-002   0.0000000000000000     
  0.62500000000000000        6.2500000000000000E-002   0.0000000000000000     
  0.50000000000000000        9.3750000000000000E-002   0.0000000000000000     
  0.53125000000000000        9.3750000000000000E-002   0.0000000000000000     
  0.56250000000000000        9.3750000000000000E-002   0.0000000000000000     
  0.59375000000000000        9.3750000000000000E-002   0.0000000000000000     
  0.62500000000000000        9.3750000000000000E-002   0.0000000000000000     
  0.50000000000000000       0.12500000000000000        0.0000000000000000     
  0.53125000000000000       0.12500000000000000        0.0000000000000000     
  0.56250000000000000       0.12500000000000000        0.0000000000000000     
[...]
 <PointData>
 <DataArray  type="Float64" Name="disp" NumberOfComponents="3" format="ascii">
   0.0000000000000000        0.0000000000000000        0.0000000000000000     
   6.0961458881504099E-003   3.7902623207844346E-003   0.0000000000000000     
   1.1666128747132515E-002   7.3238310568565944E-003   0.0000000000000000     
   1.6709948576946312E-002   1.0600706208216480E-002   0.0000000000000000     
   2.1227605377591809E-002   1.3620887774864093E-002   0.0000000000000000     
   0.0000000000000000        0.0000000000000000        0.0000000000000000     
   4.8911058799471826E-003   3.0221407699767239E-003   0.0000000000000000     
   9.5734580953892763E-003   6.0607226715445606E-003   0.0000000000000000     
   1.4047056646326279E-002   9.1157457047035088E-003   0.0000000000000000     
   1.8311901532758190E-002   1.2187209869453569E-002   0.0000000000000000     
   0.0000000000000000        0.0000000000000000        0.0000000000000000     
   3.9533882520055540E-003   2.4252471091835582E-003   0.0000000000000000     
   7.9102796974813983E-003   5.0632402701021890E-003   0.0000000000000000     
   1.1870674336427535E-002   7.9139794827558924E-003   0.0000000000000000     
   1.5834572168843958E-002   1.0977464747144668E-002   0.0000000000000000     
   0.0000000000000000        0.0000000000000000        0.0000000000000000     
   3.2829930043255262E-003   1.9995813384049376E-003   0.0000000000000000     
   6.6765935534088862E-003   4.3313838525294822E-003   0.0000000000000000     
   1.0180801647250080E-002   6.9954075423736359E-003   0.0000000000000000     
   1.3795617285849104E-002   9.9916524079373958E-003   0.0000000000000000     
   0.0000000000000000        0.0000000000000000        0.0000000000000000     
   2.8799201369070970E-003   1.7451434576408616E-003   0.0000000000000000     
   5.8723996631717349E-003   3.8651534188264402E-003   0.0000000000000000     
   8.9774385787939146E-003   6.3600298835567344E-003   0.0000000000000000     
   1.2195036883773634E-002   9.2297728518317464E-003   0.0000000000000000     
   2.1227605377591809E-002   1.3620887774864093E-002   0.0000000000000000     
   2.5432231235896989E-002   1.6614440473284597E-002   0.0000000000000000     
   2.9536958238689855E-002   1.9811429019963155E-002   0.0000000000000000     
   3.3541786385970405E-002   2.3211853414899772E-002   0.0000000000000000     
   3.7446715677738635E-002   2.6815713658094441E-002   0.0000000000000000     
   1.8311901532758190E-002   1.2187209869453569E-002   0.0000000000000000     
   2.2406298979950723E-002   1.5343103630213784E-002   0.0000000000000000     
   2.6368555213169588E-002   1.8651415451403190E-002   0.0000000000000000     
   3.0198670232414768E-002   2.2112145333021790E-002   0.0000000000000000     
   3.3896644037686281E-002   2.5725293275069581E-002   0.0000000000000000     
   1.5834572168843958E-002   1.0977464747144668E-002   0.0000000000000000     
   1.9730184828033601E-002   1.4212317172508352E-002   0.0000000000000000     
   2.3485723947299364E-002   1.7577157868086765E-002   0.0000000000000000     
   2.7101189526641284E-002   2.1071986833879917E-002   0.0000000000000000     
   3.0576581566059323E-002   2.4696804069887800E-002   0.0000000000000000     
   1.3795617285849104E-002   9.9916524079373958E-003   0.0000000000000000     
   1.7403888780145600E-002   1.3222081100168299E-002   0.0000000000000000     
   2.0888464441079217E-002   1.6588656270013886E-002   0.0000000000000000     
   2.4249344268649935E-002   2.0091377917474149E-002   0.0000000000000000     
   2.7486528262857760E-002   2.3730246042549093E-002   0.0000000000000000     
   1.2195036883773634E-002   9.2297728518317464E-003   0.0000000000000000     
   1.5427410836286749E-002   1.2372395413193632E-002   0.0000000000000000     
   1.8576776694509113E-002   1.5685910657184547E-002   0.0000000000000000     
   2.1643134458440728E-002   1.9170318583804490E-002   0.0000000000000000     
   2.4626484128081591E-002   2.2825619193053467E-002   0.0000000000000000     
   3.7446715677738635E-002   2.6815713658094441E-002   0.0000000000000000     
   4.1255620598193987E-002   3.0620079866253154E-002   0.0000000000000000     
   4.4972375631535881E-002   3.4622022156081893E-002   0.0000000000000000     
   4.8596980777764337E-002   3.8821540527580668E-002   0.0000000000000000     
   5.2129436036879334E-002   4.3218634980749460E-002   0.0000000000000000     
   3.3896644037686281E-002   2.5725293275069581E-002   0.0000000000000000     
   3.7485220720344534E-002   2.9521053260394208E-002   0.0000000000000000     
   4.0987144371749926E-002   3.3529619271843294E-002   0.0000000000000000     
   4.4402414991902471E-002   3.7750991309416879E-002   0.0000000000000000     
   4.7731032580802163E-002   4.2185169373114909E-002   0.0000000000000000     
   3.0576581566059323E-002   2.4696804069887800E-002   0.0000000000000000     
   3.3940963570390212E-002   2.8497110115668300E-002   0.0000000000000000     
   3.7223399044470640E-002   3.2518405510779315E-002   0.0000000000000000     
   4.0423887988300607E-002   3.6760690255220836E-002   0.0000000000000000     
   4.3542430401880126E-002   4.1223964348992864E-002   0.0000000000000000     
   2.7486528262857760E-002   2.3730246042549093E-002   0.0000000000000000     
   3.0622849148331015E-002   2.7548250432075445E-002   0.0000000000000000     
   3.3681139649698016E-002   3.1588380872889933E-002   0.0000000000000000     
   3.6661399766958744E-002   3.5850637364992569E-002   0.0000000000000000     
   3.9563629500113232E-002   4.0335019908383334E-002   0.0000000000000000     
   2.4626484128081591E-002   2.2825619193053467E-002   0.0000000000000000     
   2.7530877454166956E-002   2.6674474209615634E-002   0.0000000000000000     
   3.0360366187432056E-002   3.0739545358175167E-002   0.0000000000000000     
   3.3114950327876896E-002   3.5020832638732055E-002   0.0000000000000000     
   3.5794629875501485E-002   3.9518336051286303E-002   0.0000000000000000     
   5.2129436036879334E-002   4.3218634980749460E-002   0.0000000000000000     
   5.5564053235382452E-002   4.7814622736503859E-002   0.0000000000000000     
   5.8895144199775283E-002   5.2610821015759424E-002   0.0000000000000000     
   6.2122708930057821E-002   5.7607229818516160E-002   0.0000000000000000     
   6.5246747426230059E-002   6.2803849144774063E-002   0.0000000000000000     
   4.7731032580802163E-002   4.2185169373114909E-002   0.0000000000000000     
   5.0969669172750171E-002   4.6822936644044397E-002   0.0000000000000000     
   5.4114996802047670E-002   5.1655076303312293E-002   0.0000000000000000     
   5.7167015468694682E-002   5.6681588350918612E-002   0.0000000000000000     
   6.0125725172691172E-002   6.1902472786863345E-002   0.0000000000000000     
   4.3542430401880126E-002   4.1223964348992864E-002   0.0000000000000000     
   4.6577891365012378E-002   4.5893550632109904E-002   0.0000000000000000     
   4.9529135957500574E-002   5.0754771944586489E-002   0.0000000000000000     
   5.2396164179344680E-002   5.5807628286422592E-002   0.0000000000000000     
   5.5178976030544724E-002   6.1052119657618212E-002   0.0000000000000000     
   3.9563629500113232E-002   4.0335019908383334E-002   0.0000000000000000     
   4.2388719812169101E-002   4.5026464700700417E-002   0.0000000000000000     
   4.5137561666133967E-002   4.9909907939581999E-002   0.0000000000000000     
   4.7810155062007836E-002   5.4985349625028088E-002   0.0000000000000000     
   5.0406499999790737E-002   6.0252789757038676E-002   0.0000000000000000     
   3.5794629875501485E-002   3.9518336051286303E-002   0.0000000000000000     
   3.8402154514220306E-002   4.4221678849815899E-002   0.0000000000000000     
   4.0940273927947864E-002   4.9120484288298828E-002   0.0000000000000000     
   4.3408988116684158E-002   5.4214752366735106E-002   0.0000000000000000     
   4.5808297080429189E-002   5.9504483085124710E-002   0.0000000000000000     
   6.5246747426230059E-002   6.2803849144774063E-002   0.0000000000000000     
   6.8275860310333752E-002   6.8189557587638699E-002   0.0000000000000000     
   7.1218648204410651E-002   7.3753233740215668E-002   0.0000000000000000     
   7.4075111108460739E-002   7.9494877602504940E-002   0.0000000000000000     
   7.6845249022484047E-002   8.5414489174506530E-002   0.0000000000000000     
   6.0125725172691172E-002   6.1902472786863345E-002   0.0000000000000000     
   6.2993734595428882E-002   6.7310827306731782E-002   0.0000000000000000     
   6.5773652418299564E-002   7.2899749606109190E-002   0.0000000000000000     
   6.8465478641303187E-002   7.8669239684995590E-002   0.0000000000000000     
   7.1069213264439754E-002   8.4619297543390953E-002   0.0000000000000000     
   5.5178976030544724E-002   6.1052119657618212E-002   0.0000000000000000     
   5.7875997522798144E-002   6.6483573223669393E-002   0.0000000000000000     
   6.0485654667802327E-002   7.2097316150072088E-002   0.0000000000000000     
   6.3007947465557296E-002   7.7893348436826368E-002   0.0000000000000000     
   6.5442875916063029E-002   8.3871670083932162E-002   0.0000000000000000     
   5.0406499999790737E-002   6.0252789757038676E-002   0.0000000000000000     
   5.2922649092441480E-002   6.5707795338451530E-002   0.0000000000000000     
   5.5354654952918921E-002   7.1345933372104389E-002   0.0000000000000000     
   5.7702517581223044E-002   7.7167203857997260E-002   0.0000000000000000     
   5.9966236977353857E-002   8.3171606796130185E-002   0.0000000000000000     
   4.5808297080429189E-002   5.9504483085124710E-002   0.0000000000000000     
   4.8133689304358927E-002   6.4983493651078195E-002   0.0000000000000000     
   5.0380653273649344E-002   7.0645601272206038E-002   0.0000000000000000     
   5.2549188988300445E-002   7.6490805948508309E-002   0.0000000000000000     
   5.4639296448312245E-002   8.2519107679984993E-002   0.0000000000000000     
   7.6845249022484047E-002   8.5414489174506530E-002   0.0000000000000000     
   7.9523593922463581E-002   9.1507644115483983E-002   0.0000000000000000     
   8.2104677784382393E-002   9.7769918084700827E-002   0.0000000000000000     
   8.4588500608240483E-002  0.10420131108215706        0.0000000000000000     
   8.6975062394037850E-002  0.11080182310785269        0.0000000000000000     
   7.1069213264439754E-002   8.4619297543390953E-002   0.0000000000000000     
   7.3583694315696363E-002   9.0743450674795056E-002   0.0000000000000000     
   7.6007759823060073E-002   9.7035226572707592E-002   0.0000000000000000     
   7.8341409786530897E-002  0.10349462523712860        0.0000000000000000     
   8.0584644206108849E-002  0.11012164666805807        0.0000000000000000     
   6.5442875916063029E-002   8.3871670083932162E-002   0.0000000000000000     
   6.7792202562922829E-002   9.0024128617668731E-002   0.0000000000000000     
   7.0057689949739987E-002   9.6342571564315277E-002   0.0000000000000000     
   7.2239338076514489E-002  0.10282699892387173        0.0000000000000000     
   7.4337146943246349E-002  0.10947741069633818        0.0000000000000000     
   5.9966236977353857E-002   8.3171606796130185E-002   0.0000000000000000     
   6.2149118664143008E-002   8.9349677944105060E-002   0.0000000000000000     
   6.4254468164422138E-002   9.5691953059523799E-002   0.0000000000000000     
   6.6282285478191261E-002  0.10219843214238651        0.0000000000000000     
   6.8232570605450363E-002  0.10886911519269306        0.0000000000000000     
   5.4639296448312245E-002   8.2519107679984993E-002   0.0000000000000000     
   5.6654442619356885E-002   8.8720098654103990E-002   0.0000000000000000     
   5.8598094467106523E-002   9.5083371058333283E-002   0.0000000000000000     
   6.0470251991561183E-002  0.10160892489267284        0.0000000000000000     
   6.2270915192720849E-002  0.10829676015712268        0.0000000000000000     
   8.6975062394037850E-002  0.11080182310785269        0.0000000000000000     
   8.9254951458768939E-002  0.11755326921969902        0.0000000000000000     
   9.1418756119428166E-002  0.12443746447560741        0.0000000000000000     
   9.3466476376015545E-002  0.13145440887557786        0.0000000000000000     
   9.5398112228531062E-002  0.13860410241961035        0.0000000000000000     
   8.0584644206108849E-002  0.11012164666805807        0.0000000000000000     
   8.2736609838369932E-002  0.11689972501819176        0.0000000000000000     
   8.4796453439890174E-002  0.12381229444022551        0.0000000000000000     
   8.6764175010669561E-002  0.13085935493415929        0.0000000000000000     
   8.8639774550708123E-002  0.13804090649999312        0.0000000000000000     
   7.4337146943246349E-002  0.10947741069633818        0.0000000000000000     
   7.6355519406869868E-002  0.11627868598062439        0.0000000000000000     
   7.8298858324319376E-002  0.12321570387564021        0.0000000000000000     
   8.0167163695594873E-002  0.13028846438138564        0.0000000000000000     
   8.1960435520696373E-002  0.13749696749786064        0.0000000000000000     
   6.8232570605450363E-002  0.10886911519269306        0.0000000000000000     
   7.0111680164268747E-002  0.11569015210699696        0.0000000000000000     
   7.1925970772715814E-002  0.12264769278185154        0.0000000000000000     
   7.3675442430791466E-002  0.12974173721725688        0.0000000000000000     
   7.5360095138495800E-002  0.13697228541321294        0.0000000000000000     
   6.2270915192720849E-002  0.10829676015712268        0.0000000000000000     
   6.4005092110566583E-002  0.11513412339730936        0.0000000000000000     
   6.5677790785079418E-002  0.12210826115885946        0.0000000000000000     
   6.7289011216259381E-002  0.12921917344177300        0.0000000000000000     
   6.8838753404106445E-002  0.13646686024604995        0.0000000000000000     
   9.5398112228531062E-002  0.13860410241961035        0.0000000000000000     
   9.7150049858844942E-002  0.14580488570910502        0.0000000000000000     
   9.8658675448827407E-002  0.15297509934546202        0.0000000000000000     
   9.9923988998478472E-002  0.16011474332868134        0.0000000000000000     
  0.10094599050779811       0.16722381765876301        0.0000000000000000     
   8.8639774550708123E-002  0.13804090649999312        0.0000000000000000     
   9.0379218630228103E-002  0.14529817008984761        0.0000000000000000     
   9.1938473819451805E-002  0.15257236665584342        0.0000000000000000     
   9.3317540118379214E-002  0.15986349619798057        0.0000000000000000     
   9.4516417527010330E-002  0.16717155871625902        0.0000000000000000     
   8.1960435520696373E-002  0.13749696749786064        0.0000000000000000     
   8.3648109457392220E-002  0.14479960191609065        0.0000000000000000     
   8.5199621163450770E-002  0.15215475632710115        0.0000000000000000     
   8.6614970638872052E-002  0.15956243073089205        0.0000000000000000     
   8.7894157883656038E-002  0.16702262512746346        0.0000000000000000     
   7.5360095138495800E-002  0.13697228541321294        0.0000000000000000     
   7.6956722340337264E-002  0.14430918118783420        0.0000000000000000     
   7.8442117480824303E-002  0.15172226835923519        0.0000000000000000     
   7.9816280559956959E-002  0.15921154692741593        0.0000000000000000     
   8.1079211577735191E-002  0.16677701689237631        0.0000000000000000     
   6.8838753404106445E-002  0.13646686024604995        0.0000000000000000     
   7.0305057279063249E-002  0.14382690790507816        0.0000000000000000     
   7.1665962771572403E-002  0.15127490275224550        0.0000000000000000     
   7.2921469881633949E-002  0.15881084478755197        0.0000000000000000     
   7.4071578609247846E-002  0.16643473401099765        0.0000000000000000     
   0.0000000000000000        0.0000000000000000        0.0000000000000000     
   2.8799201369070970E-003   1.7451434576408616E-003   0.0000000000000000     
   5.8723996631717349E-003   3.8651534188264402E-003   0.0000000000000000     
   8.9774385787939146E-003   6.3600298835567344E-003   0.0000000000000000     
   1.2195036883773634E-002   9.2297728518317464E-003   0.0000000000000000     
   0.0000000000000000        0.0000000000000000        0.0000000000000000     
   2.6102723034595473E-003   1.5892686193785602E-003   0.0000000000000000     
   5.2896429442519334E-003   3.5572327318504665E-003   0.0000000000000000     
   8.0381119223771561E-003   5.9038923374157186E-003   0.0000000000000000     
   1.0855679237835219E-002   8.6292474360743186E-003   0.0000000000000000     
   0.0000000000000000        0.0000000000000000        0.0000000000000000     
   2.3401521576921561E-003   1.4592919761052630E-003   0.0000000000000000     
   4.7202683141314636E-003   3.3003055544589687E-003   0.0000000000000000     
   7.1403484693179243E-003   5.5230407350611178E-003   0.0000000000000000     
   9.6003926232515347E-003   8.1274975179117075E-003   0.0000000000000000     
   0.0000000000000000        0.0000000000000000        0.0000000000000000     
   2.0695596996049238E-003   1.3552135278209689E-003   0.0000000000000000     
   4.1642757728103290E-003   3.0943718866519453E-003   0.0000000000000000     
   6.2841482196162174E-003   5.2174750764929275E-003   0.0000000000000000     
   8.4291770400225854E-003   7.7245230973439181E-003   0.0000000000000000     
   0.0000000000000000        0.0000000000000000        0.0000000000000000     
   1.7984949291978505E-003   1.2770332745256790E-003   0.0000000000000000     
   3.6216653202885284E-003   2.9394317284293968E-003   0.0000000000000000     
   5.4695111732720337E-003   4.9871953617111522E-003   0.0000000000000000     
   7.3420324881483673E-003   7.4203241743709463E-003   0.0000000000000000     
   1.2195036883773634E-002   9.2297728518317464E-003   0.0000000000000000     
   1.5427410836286749E-002   1.2372395413193632E-002   0.0000000000000000     
   1.8576776694509113E-002   1.5685910657184547E-002   0.0000000000000000     
   2.1643134458440728E-002   1.9170318583804490E-002   0.0000000000000000     
   2.4626484128081591E-002   2.2825619193053467E-002   0.0000000000000000     
   1.0855679237835219E-002   8.6292474360743186E-003   0.0000000000000000     
   1.3688998508161538E-002   1.1651223602213996E-002   0.0000000000000000     
   1.6484723350891534E-002   1.4887746410222492E-002   0.0000000000000000     
   1.9242853766025209E-002   1.8338815860099809E-002   0.0000000000000000     
   2.1963389753562566E-002   2.2004431951845940E-002   0.0000000000000000     
   9.6003926232515347E-003   8.1274975179117075E-003   0.0000000000000000     
   1.2076899307474480E-002   1.1046529157859059E-002   0.0000000000000000     
   1.4546367053528944E-002   1.4212988909751478E-002   0.0000000000000000     
   1.7008795861414926E-002   1.7626876773588970E-002   0.0000000000000000     
   1.9464185731132427E-002   2.1288192749371534E-002   0.0000000000000000     
   8.4291770400225854E-003   7.7245230973439181E-003   0.0000000000000000     
   1.0591113234225577E-002   1.0558312080128808E-002   0.0000000000000000     
   1.2761707802421338E-002   1.3661638155771495E-002   0.0000000000000000     
   1.4940960744609872E-002   1.7034501324271971E-002   0.0000000000000000     
   1.7128872060791171E-002   2.0676901585630250E-002   0.0000000000000000     
   7.3420324881483673E-003   7.4203241743709463E-003   0.0000000000000000     
   9.2316402884148295E-003   1.0186572369023253E-002   0.0000000000000000     
   1.1130745597568725E-002   1.3233694148282543E-002   0.0000000000000000     
   1.3039348415610049E-002   1.6561689512148824E-002   0.0000000000000000     
   1.4957448742538806E-002   2.0170558460622087E-002   0.0000000000000000     
   2.4626484128081591E-002   2.2825619193053467E-002   0.0000000000000000     
   2.7530877454166956E-002   2.6674474209615634E-002   0.0000000000000000     