 <VTKFile type="UnstructuredGrid"  version="0.1"   >
 <UnstructuredGrid>
 <Piece  NumberOfPoints="          1600 "  NumberOfCells="         1024 ">
 <Points>
 <DataArray  type="Float64" NumberOfComponents="3"  format="ascii" >
   0.0000000000000000        0.0000000000000000        0.0000000000000000     
   3.1250000000000000E-002   0.0000000000000000        0.0000000000000000     
   6.2500000000000000E-002   0.0000000000000000        0.0000000000000000     
   9.3750000000000000E-002   0.0000000000000000        0.0000000000000000     
  0.12500000000000000        0.0000000000000000        0.0000000000000000     
   0.0000000000000000        3.1250000000000000E-002   0.0000000000000000     
   3.1250000000000000E-002   3.1250000000000000E-002   0.0000000000000000     
   6.2500000000000000E-002   3.1250000000000000E-002   0.0000000000000000     
   9.3750000000000000E-002   3.1250000000000000E-002   0.0000000000000000     
  0.12500000000000000        3.1250000000000000E-002   0.0000000000000000     
   0.0000000000000000        6.2500000000000000E-002   0.0000000000000000     
   3.1250000000000000E-002   6.2500000000000000E-002   0.0000000000000000     
   6.2500000000000000E-002   6.2500000000000000E-002   0.0000000000000000     
   9.3750000000000000E-002   6.2500000000000000E-002   0.0000000000000000     
  0.12500000000000000        6.2500000000000000E-002   0.0000000000000000     
   0.0000000000000000        9.3750000000000000E-002   0.0000000000000000     
   3.1250000000000000E-002   9.3750000000000000E-002   0.0000000000000000     
   6.2500000000000000E-002   9.3750000000000000E-002   0.0000000000000000     
   9.3750000000000000E-002   9.3750000000000000E-002   0.0000000000000000     
  0.12500000000000000        9.3750000000000000E-002   0.0000000000000000     
   0.0000000000000000       0.12500000000000000        0.0000000000000000     
   3.1250000000000000E-002  0.12500000000000000        0.0000000000000000     
   6.2500000000000000E-002  0.12500000000000000        0.0000000000000000     
   9.3750000000000000E-002  0.12500000000000000        0.0000000000000000     
  0.12500000000000000       0.12500000000000000        0.0000000000000000     
  0.12500000000000000        0.0000000000000000        0.0000000000000000     
  0.15625000000000000        0.0000000000000000        0.0000000000000000     
  0.18750000000000000        0.0000000000000000        0.0000000000000000     
  0.21875000000000000        0.0000000000000000        0.0000000000000000     
  0.25000000000000000        0.0000000000000000        0.0000000000000000     
  0.12500000000000000        3.1250000000000000E-002   0.0000000000000000     
  0.15625000000000000        3.1250000000000000E-002   0.0000000000000000     
  0.18750000000000000        3.1250000000000000E-002   0.0000000000000000     
  0.21875000000000000        3.1250000000000000E-002   0.0000000000000000     
  0.25000000000000000        3.1250000000000000E-002   0.0000000000000000     
  0.12500000000000000        6.2500000000000000E-002   0.0000000000000000     
  0.15625000000000000        6.2500000000000000E-002   0.0000000000000000     
  0.18750000000000000        6.2500000000000000E-002   0.0000000000000000     
  0.21875000000000000        6.2500000000000000E-002   0.0000000000000000     
  0.25000000000000000        6.2500000000000000E-002   0.0000000000000000     
  0.12500000000000000        9.3750000000000000E-002   0.0000000000000000     
  0.15625000000000000        9.3750000000000000E-002   0.0000000000000000     
  0.18750000000000000        9.3750000000000000E-002   0.0000000000000000     
  0.21875000000000000        9.3750000000000000E-002   0.0000000000000000     
  0.25000000000000000        9.3750000000000000E-002   0.0000000000000000     
  0.12500000000000000       0.12500000000000000        0.0000000000000000     
  0.15625000000000000       0.12500000000000000        0.0000000000000000     
  0.18750000000000000       0.12500000000000000        0.0000000000000000     
  0.21875000000000000       0.12500000000000000        0.0000000000000000     
  0.25000000000000000       0.12500000000000000        0.0000000000000000     
  0.25000000000000000        0.0000000000000000        0.0000000000000000     
  0.28125000000000000        0.0000000000000000        0.0000000000000000     
  0.31250000000000000        0.0000000000000000        0.0000000000000000     
  0.34375000000000000        0.0000000000000000        0.0000000000000000     
  0.37500000000000000        0.0000000000000000        0.0000000000000000     
  0.25000000000000000        3.1250000000000000E-002   0.0000000000000000     
  0.28125000000000000        3.1250000000000000E-002   0.0000000000000000     
  0.31250000000000000        3.1250000000000000E-002   0.0000000000000000     
  0.34375000000000000        3.1250000000000000E-002   0.0000000000000000     
  0.37500000000000000        3.1250000000000000E-002   0.0000000000000000     
  0.25000000000000000        6.2500000000000000E-002   0.0000000000000000     
  0.28125000000000000        6.2500000000000000E-002   0.0000000000000000     
  0.31250000000000000        6.2500000000000000E-002   0.0000000000000000     
  0.34375000000000000        6.2500000000000000E-002   0.0000000000000000     
  0.37500000000000000        6.2500000000000000E-002   0.0000000000000000     
  0.25000000000000000        9.3750000000000000E-002   0.0000000000000000     
  0.28125000000000000        9.3750000000000000E-002   0.0000000000000000     
  0.31250000000000000        9.3750000000000000E-002   0.0000000000000000     
  0.34375000000000000        9.3750000000000000E-002   0.0000000000000000     
  0.37500000000000000        9.3750000000000000E-002   0.0000000000000000     
  0.25000000000000000       0.12500000000000000        0.0000000000000000     
  0.28125000000000000       0.12500000000000000        0.0000000000000000     
  0.31250000000000000       0.12500000000000000        0.0000000000000000     
  0.34375000000000000       0.12500000000000000        0.0000000000000000     
  0.37500000000000000       0.12500000000000000        0.0000000000000000     
  0.37500000000000000        0.0000000000000000        0.0000000000000000     
  0.40625000000000000        0.0000000000000000        0.0000000000000000     
  0.43750000000000000        0.0000000000000000        0.0000000000000000     
  0.46875000000000000        0.0000000000000000        0.0000000000000000     
  0.50000000000000000        0.0000000000000000        0.0000000000000000     
  0.37500000000000000        3.1250000000000000E-002   0.0000000000000000     
  0.40625000000000000        3.1250000000000000E-002   0.0000000000000000     
  0.43750000000000000        3.1250000000000000E-002   0.0000000000000000     
  0.46875000000000000        3.1250000000000000E-002   0.0000000000000000     
  0.50000000000000000        3.1250000000000000E-002   0.0000000000000000     
  0.37500000000000000        6.2500000000000000E-002   0.0000000000000000     
  0.40625000000000000        6.2500000000000000E-002   0.0000000000000000     
  0.43750000000000000        6.2500000000000000E-002   0.0000000000000000     
  0.46875000000000000        6.2500000000000000E-002   0.0000000000000000     
  0.50000000000000000        6.2500000000000000E-002   0.0000000000000000     
  0.37500000000000000        9.3750000000000000E-002   0.0000000000000000     
  0.40625000000000000        9.3750000000000000E-002   0.0000000000000000     
  0.43750000000000000        9.3750000000000000E-002   0.0000000000000000     
  0.46875000000000000        9.3750000000000000E-002   0.0000000000000000     
  0.50000000000000000        9.3750000000000000E-002   0.0000000000000000     
  0.37500000000000000       0.12500000000000000        0.0000000000000000     
  0.40625000000000000       0.12500000000000000        0.0000000000000000     
  0.43750000000000000       0.12500000000000000        0.0000000000000000     
  0.46875000000000000       0.12500000000000000        0.0000000000000000     
  0.50000000000000000       0.12500000000000000        0.0000000000000000     
  0.50000000000000000        0.0000000000000000        0.0000000000000000     
  0.53125000000000000        0.0000000000000000        0.0000000000000000     
  0.56250000000000000        0.0000000000000000        0.0000000000000000     
  0.59375000000000000        0.0000000000000000        0.0000000000000000     
  0.62500000000000000        0.0000000000000000        0.0000000000000000     
  0.50000000000000000        3.1250000000000000E-002   0.0000000000000000     
  0.53125000000000000        3.1250000000000000E-002   0.0000000000000000     
  0.56250000000000000        3.1250000000000000E-002   0.0000000000000000     
  0.59375000000000000        3.1250000000000000E-002   0.0000000000000000     
  0.62500000000000000        3.1250000000000000E-002   0.0000000000000000     
  0.50000000000000000        6.2500000000000000E-002   0.0000000000000000     
  0.53125000000000000        6.2500000000000000E-002   0.0000000000000000     
  0.56250000000000000        6.2500000000000000E-002   0.0000000000000000     
  0.59375000000000000        6.2500000000000000E-002   0.0000000000000000     
  0.62500000000000000        6.2500000000000000E-002   0.0000000000000000     
  0.50000000000000000        9.3750000000000000E-002   0.0000000000000000     
  0.53125000000000000        9.3750000000000000E-002   0.0000000000000000     
  0.56250000000000000        9.3750000000000000E-002   0.0000000000000000     
  0.59375000000000000        9.3750000000000000E-002   0.0000000000000000     
  0.62500000000000000        9.3750000000000000E-002   0.0000000000000000     
  0.50000000000000000       0.12500000000000000        0.0000000000000000     
  0.53125000000000000       0.12500000000000000        0.0000000000000000     
  0.56250000000000000       0.12500000000000000        0.0000000000000000     
[...]
 <PointData>
 <DataArray  type="Float64" Name="disp" NumberOfComponents="3" format="ascii">
   0.0000000000000000        0.0000000000000000        0.0000000000000000     
   8.3981418939039452E-003  -2.4597136255332809E-002   0.0000000000000000     
   2.9853007191882035E-002  -4.2014377409063448E-002   0.0000000000000000     
   6.4364595893934270E-002  -5.2251723461191925E-002   0.0000000000000000     
  0.11193290800006066       -5.5309174411718218E-002   0.0000000000000000     
   0.0000000000000000        0.0000000000000000        0.0000000000000000     
   4.9892337047232423E-004  -3.2765116434510397E-002   0.0000000000000000     
   1.3402497029573805E-002  -5.5807618579257950E-002   0.0000000000000000     
   3.8710720977304436E-002  -6.9127506434242661E-002   0.0000000000000000     
   7.6423595213664222E-002  -7.2724779999464556E-002   0.0000000000000000     
   0.0000000000000000        0.0000000000000000        0.0000000000000000     
  -2.5660316089205107E-003  -3.8907848725359344E-002   0.0000000000000000     
   2.7891782356812443E-003  -6.7160838890627100E-002   0.0000000000000000     
   1.6065629533805269E-002  -8.4758970495803249E-002   0.0000000000000000     
   3.7263322285451546E-002  -9.1702243540887796E-002   0.0000000000000000     
   0.0000000000000000        0.0000000000000000        0.0000000000000000     
  -7.9672304427455922E-004  -4.3025333127879671E-002   0.0000000000000000     
  -1.9869491897956406E-003  -7.6074038343170905E-002   0.0000000000000000     
  -3.5706784365632485E-003  -9.9146115645873667E-002   0.0000000000000000     
  -5.5479107845773775E-003 -0.11224156503598802        0.0000000000000000     
   0.0000000000000000        0.0000000000000000        0.0000000000000000     
   5.8068490644101779E-003  -4.5117569642071365E-002   0.0000000000000000     
  -9.2588524685685569E-004  -8.2547216936889350E-002   0.0000000000000000     
  -2.0198202933801097E-002 -0.11228894188445394        0.0000000000000000     
  -5.2010103996422564E-002 -0.13434274448476513        0.0000000000000000     
  0.11193290800006066       -5.5309174411718218E-002   0.0000000000000000     
  0.16135092955131553       -1.4910305242819950E-002   0.0000000000000000     
  0.20141164658875321       0.10522130906332526        0.0000000000000000     
  0.23211505911237371       0.30508566850671742        0.0000000000000000     
  0.25346116712217703       0.58468277308735650        0.0000000000000000     
   7.6423595213664222E-002  -7.2724779999464556E-002   0.0000000000000000     
  0.11090268616186023       -2.7496146433650247E-002   0.0000000000000000     
  0.12650956024509946       0.10566168710447360        0.0000000000000000     
  0.12324421746338193       0.32674872061490695        0.0000000000000000     
  0.10110665781670765       0.63576495409764988        0.0000000000000000     
   3.7263322285451546E-002  -9.1702243540887796E-002   0.0000000000000000     
   5.6173886650472162E-002  -4.7501487807507375E-002   0.0000000000000000     
   6.2588952788719149E-002   8.8332466922711461E-002   0.0000000000000000     
   5.6508520700192494E-002  0.31579962064976874        0.0000000000000000     
   3.7932590384892231E-002  0.63489997337366433        0.0000000000000000     
  -5.5479107845773775E-003 -0.11224156503598802        0.0000000000000000     
  -2.8354689828486682E-003  -7.4926329364391364E-002   0.0000000000000000     
   9.6498242196122550E-003   5.3233648518038822E-002   0.0000000000000000     
   3.1907968822805423E-002  0.27223836861130252        0.0000000000000000     
   6.3938964826730740E-002  0.58208783091539973        0.0000000000000000     
  -5.2010103996422564E-002 -0.13434274448476513        0.0000000000000000     
  -6.6125380738102243E-002 -0.10977067110430219        0.0000000000000000     
  -3.2307825462221156E-002   3.6523189045569240E-004   0.0000000000000000     
   4.9442561831220658E-002  0.19606496449950853        0.0000000000000000     
  0.17912578114222327       0.47732852672285631        0.0000000000000000     
  0.25346116712217703       0.58468277308735650        0.0000000000000000     
  0.17448349631308410       0.80642701340072753        0.0000000000000000     
  -9.5784427619984139E-002  0.83273278004231555        0.0000000000000000     
 -0.55734260467702768       0.66360007301212043        0.0000000000000000     
  -1.2101910348580465       0.29902889231014218        0.0000000000000000     
  0.10110665781670765       0.63576495409764988        0.0000000000000000     
   2.8322250648657558E-002  0.87255934360486853        0.0000000000000000     
 -0.12688363469718736       0.87698084518872887        0.0000000000000000     
 -0.36451099822082716       0.64902945884923102        0.0000000000000000     
 -0.68455983992226177       0.18870518458637520        0.0000000000000000     
   3.7932590384892231E-002  0.63489997337366433        0.0000000000000000     
  -4.3452432670328198E-003  0.88386879976020571        0.0000000000000000     
  -8.1531385365433848E-002  0.90094137447520029        0.0000000000000000     
 -0.19362583591031085       0.68611769751864804        0.0000000000000000     
 -0.34062859490166375       0.23939776889054917        0.0000000000000000     
   6.3938964826730740E-002  0.58208783091539973        0.0000000000000000     
   7.6481014566012931E-002  0.84035538186673930        0.0000000000000000     
   4.0272320375276414E-002  0.90461436790172978        0.0000000000000000     
  -4.4687117745478767E-002  0.77486478902037159        0.0000000000000000     
 -0.17839729979625266       0.45110664522266425        0.0000000000000000     
  0.17912578114222327       0.47732852672285631        0.0000000000000000     
  0.27080102414779478       0.74201908992446908        0.0000000000000000     
  0.23852748252494343       0.88799982546831757        0.0000000000000000     
   8.2305156273669078E-002  0.91527073335440123        0.0000000000000000     
 -0.19786595460602824       0.82383181358272028        0.0000000000000000     
  -1.2101910348580465       0.29902889231014218        0.0000000000000000     
  -1.6976850622116411        7.1658412802689697E-002   0.0000000000000000     
  -1.6631800307864115       0.31412780935607199        0.0000000000000000     
  -1.1066759405823581        1.0264370819702888        0.0000000000000000     
  -2.8172791599480718E-002   2.2085862306453405        0.0000000000000000     
 -0.68455983992226177       0.18870518458637520        0.0000000000000000     
 -0.91322425726451506      -0.11852873001383174        0.0000000000000000     
 -0.87669834771061084       0.11279096263461731        0.0000000000000000     
 -0.57498211126054899       0.88266426253172237        0.0000000000000000     
  -8.0755479143296283E-003   2.1910911696774837        0.0000000000000000     
 -0.34062859490166375       0.23939776889054917        0.0000000000000000     
 -0.45116279707052698       -6.2763560596587040E-002   0.0000000000000000     
 -0.45385157714793467       0.15608855986974884        0.0000000000000000     
 -0.34869493513388689       0.89595413028955695        0.0000000000000000     
 -0.13569287102838362        2.1568331506628375        0.0000000000000000     
 -0.17839729979625266       0.45110664522266425        0.0000000000000000     
 -0.31150068162967687       0.23895392105442406        0.0000000000000000     
 -0.39463971909838325       0.44402060106146701        0.0000000000000000     
 -0.42781441220237176        1.0663066852437932        0.0000000000000000     
 -0.41102476094164248        2.1058121736014024        0.0000000000000000     
 -0.19786595460602824       0.82383181358272028        0.0000000000000000     
 -0.49423791094196473       0.78662371493920147        0.0000000000000000     
 -0.69906277356195645       0.97658708620977130        0.0000000000000000     
 -0.81234054246600385        1.3937219273944303        0.0000000000000000     
 -0.83407121765410652        2.0380282384931783        0.0000000000000000     
  -2.8172791599480718E-002   2.2085862306453405        0.0000000000000000     
  0.93386047493666513        3.3021816919925611        0.0000000000000000     
   1.1409549178005238        3.7488299026232856        0.0000000000000000     
  0.59311053699209515        3.5485308625375138        0.0000000000000000     
 -0.70967266748862068        2.7012845717352456        0.0000000000000000     
  -8.0755479143296283E-003   2.1910911696774837        0.0000000000000000     
  0.52490692773379788        3.4066423636004290        0.0000000000000000     
  0.72485090108958494        3.8978885238290877        0.0000000000000000     
  0.59175637215303090        3.6648296503634588        0.0000000000000000     
  0.12562334092413618        2.7074657432035432        0.0000000000000000     
 -0.13569287102838362        2.1568331506628375        0.0000000000000000     
  0.11209616944638115        3.3230958675557360        0.0000000000000000     
  0.32161374056821351        3.7791125275343966        0.0000000000000000     
  0.49285984233711344        3.5248831305988215        0.0000000000000000     
  0.62583447475308074        2.5604076767490094        0.0000000000000000     
 -0.41102476094164248        2.1058121736014024        0.0000000000000000     
 -0.30457179992558542        3.0515422038584807        0.0000000000000000     
  -6.8756563763590434E-002   3.3925019137392143        0.0000000000000000     
  0.29642094754434239        3.1286913032436017        0.0000000000000000     
  0.79096073399821332        2.2601103723716447        0.0000000000000000     
 -0.83407121765410652        2.0380282384931783        0.0000000000000000     
 -0.72509698038210169        2.5919813725086640        0.0000000000000000     
 -0.44626001190582681        2.7380566824435379        0.0000000000000000     
   2.4396877747181684E-003   2.4762541682977997        0.0000000000000000     
  0.62100211865953336        1.8065738300714493        0.0000000000000000     
 -0.70967266748862068        2.7012845717352456        0.0000000000000000     
  -1.8324920135499130        1.6777650877428461        0.0000000000000000     
  -1.8404448191000706       0.94864646808667930        0.0000000000000000     
 -0.73353108413909351       0.51392871276674557        0.0000000000000000     
   1.4882491913330176       0.37361182178304458        0.0000000000000000     
  0.12562334092413618        2.7074657432035432        0.0000000000000000     
 -0.27708306380367653        1.5616703481458174        0.0000000000000000     
 -0.21989771323698479       0.76331701098675930        0.0000000000000000     
  0.29717939262421161       0.31240573172636887        0.0000000000000000     
   1.2741482537799125       0.20893651036464597        0.0000000000000000     
  0.62583447475308074        2.5604076767490094        0.0000000000000000     
  0.74931626772986926        1.4148537568239024        0.0000000000000000     
  0.89208385118123157       0.61738896166244350        0.0000000000000000     
   1.0541372251071679       0.16801329126463227        0.0000000000000000     
   1.2354763895076788        6.6726745630468778E-002   0.0000000000000000     
  0.79096073399821332        2.2601103723716447        0.0000000000000000     
   1.2467059810507242        1.2373153137771018        0.0000000000000000     
   1.4954998741545789       0.51086232011373212        0.0000000000000000     
   1.5373424133097762        8.0751391381535836E-002   0.0000000000000000     
   1.3722335985163168       -5.3017472419487018E-002   0.0000000000000000     
  0.62100211865953336        1.8065738300714493        0.0000000000000000     
   1.2150860761588893        1.0290550190054149        0.0000000000000000     
   1.5903503556830569       0.44373708634062486        0.0000000000000000     
   1.7467949572320356        5.0620032077079477E-002   0.0000000000000000     
   1.6844198808058259      -0.15029614378522138        0.0000000000000000     
   1.4882491913330176       0.37361182178304458        0.0000000000000000     
   3.2534099404135790       0.26599014810074961        0.0000000000000000     
   2.9904650961999062       -7.0641955314966504E-002   0.0000000000000000     
  0.69941465869200026      -0.63628448846410368        0.0000000000000000     
  -3.6197413721101408       -1.4309374513466622        0.0000000000000000     
   1.2741482537799125       0.20893651036464597        0.0000000000000000     
   2.0390749065942781       0.18089267310074450        0.0000000000000000     
   1.9200253874314677       -4.3742453866181800E-002   0.0000000000000000     
  0.91699969629148281      -0.46496887053613295        0.0000000000000000     
 -0.97000216682567864       -1.0827865769091087        0.0000000000000000     
   1.2354763895076788        6.6726745630468778E-002   0.0000000000000000     
   1.3603781614361581        6.6017945489134283E-002   0.0000000000000000     
   1.3531193579460001       -8.1624488430189879E-002   0.0000000000000000     
   1.2136999790372052      -0.37620055612750364        0.0000000000000000     
  0.94212002470977263      -0.81771025760280713        0.0000000000000000     
   1.3722335985163168       -5.3017472419487018E-002   0.0000000000000000     
   1.2173197049392195       -7.8634034734081065E-002   0.0000000000000000     
   1.2897470077435031      -0.18428805900699075        0.0000000000000000     
   1.5895155069291678      -0.36997954523821613        0.0000000000000000     
   2.1166252024962136      -0.63570849342775726        0.0000000000000000     
   1.6844198808058259      -0.15029614378522138        0.0000000000000000     
   1.6098995371034610      -0.25306326756890146        0.0000000000000000     
   1.7299083368239760      -0.35173316559658441        0.0000000000000000     
   2.0444462799673704      -0.44630583786827038        0.0000000000000000     
   2.5535133665336445      -0.53678128438395911        0.0000000000000000     
  -3.6197413721101408       -1.4309374513466622        0.0000000000000000     
  -7.0280861315942396       -2.0953783754285911        0.0000000000000000     
  -6.5867027551480266       -2.2703847921758387        0.0000000000000000     
  -2.2955912427714966       -1.9559567015884065        0.0000000000000000     
   5.8452484055353482       -1.1520941036662935        0.0000000000000000     
 -0.97000216682567864       -1.0827865769091087        0.0000000000000000     
  -2.5598352459478573       -1.6674240501733184        0.0000000000000000     
  -2.6713545851028933       -1.9891097675169718        0.0000000000000000     
  -1.3045601842907877       -2.0478437289400677        0.0000000000000000     
   1.5405479564884601       -1.8436259344426067        0.0000000000000000     
  0.94212002470977263      -0.81771025760280713        0.0000000000000000     
  0.56799016958173831       -1.2966737394146697        0.0000000000000000     
  0.12092108827113732       -1.7036111481216603        0.0000000000000000     
 -0.39908721922203033       -2.0385224837237788        0.0000000000000000     
 -0.99203475289776422       -2.3014077462210261        0.0000000000000000     
   2.1166252024962136      -0.63570849342775726        0.0000000000000000     
   2.3553901149945449      -0.98312744315264355        0.0000000000000000     
   1.7901242649740658       -1.4138889339899050        0.0000000000000000     
  0.42082765243477588       -1.9279929659395409        0.0000000000000000     
  -1.7524997226233243       -2.5254395390015518        0.0000000000000000     
   2.5535133665336445      -0.53678128438395911        0.0000000000000000     
   2.8023645902905625      -0.72678516138724092        0.0000000000000000     
   2.3362549450058916       -1.1199431251217058        0.0000000000000000     
   1.1551844306796308       -1.7162551755873534        0.0000000000000000     
 -0.74084695268821976       -2.5157213127841844        0.0000000000000000     
   0.0000000000000000        0.0000000000000000        0.0000000000000000     
   5.8068490644101779E-003  -4.5117569642071365E-002   0.0000000000000000     
  -9.2588524685685569E-004  -8.2547216936889350E-002   0.0000000000000000     
  -2.0198202933801097E-002 -0.11228894188445394        0.0000000000000000     
  -5.2010103996422564E-002 -0.13434274448476513        0.0000000000000000     
   0.0000000000000000        0.0000000000000000        0.0000000000000000     
   1.0086497482257000E-002  -5.1524791643164952E-002   0.0000000000000000     
  -1.8589346797037946E-003  -9.5413618059247404E-002   0.0000000000000000     
  -3.5836296485882380E-002 -0.13166647924824737        0.0000000000000000     
  -9.1845587936278755E-002 -0.16028337521016481        0.0000000000000000     
   0.0000000000000000        0.0000000000000000        0.0000000000000000     
   4.8840349743891993E-003  -6.8587232506390927E-002   0.0000000000000000     
  -1.2617402232537857E-002 -0.12350648509771001        0.0000000000000000     
  -5.2504311620781174E-002 -0.16475775777395724        0.0000000000000000     
 -0.11477669319034074      -0.19234105053513265        0.0000000000000000     
   0.0000000000000000        0.0000000000000000        0.0000000000000000     
  -9.8005384591932226E-003  -9.6304892231749303E-002   0.0000000000000000     
  -3.3201287905359041E-002 -0.16682581805227714        0.0000000000000000     
  -7.0202248338497489E-002 -0.21156277746158356        0.0000000000000000     
 -0.12080341975860850      -0.23051577045966848        0.0000000000000000     
   0.0000000000000000        0.0000000000000000        0.0000000000000000     
  -3.3967222818490253E-002 -0.13467777081924009        0.0000000000000000     
  -6.3610591698167365E-002 -0.22537161692294888        0.0000000000000000     
  -8.8930106639031281E-002 -0.27208153831112636        0.0000000000000000     
 -0.10992576764108207      -0.27480753498377253        0.0000000000000000     
  -5.2010103996422564E-002 -0.13434274448476513        0.0000000000000000     
  -6.6125380738102243E-002 -0.10977067110430219        0.0000000000000000     
  -3.2307825462221156E-002   3.6523189045569240E-004   0.0000000000000000     
   4.9442561831220658E-002  0.19606496449950853        0.0000000000000000     
  0.17912578114222327       0.47732852672285631        0.0000000000000000     
  -9.1845587936278755E-002 -0.16028337521016481        0.0000000000000000     
 -0.11815321702836484      -0.14858570680811289        0.0000000000000000     
  -6.3025591759612504E-002  -6.3894874905204652E-002   0.0000000000000000     
   7.3537287869978193E-002   9.3789120498559850E-002   0.0000000000000000     
  0.29153542186040743       0.32446627940318062        0.0000000000000000     
 -0.11477669319034074      -0.19234105053513265        0.0000000000000000     
 -0.14337634626671270      -0.18792263025669642        0.0000000000000000     
  -8.2245070175393079E-002 -0.13316876381410900        0.0000000000000000     
   6.8617135083618025E-002  -2.8079451207370244E-002   0.0000000000000000     
  0.30921026951032060       0.12734530756351972        0.0000000000000000     
 -0.12080341975860850      -0.23051577045966848        0.0000000000000000     
 -0.14179476845314581      -0.22778144145005283        0.0000000000000000     
  -8.9966260709562956E-002 -0.20745643483625725        0.0000000000000000     
   3.4682103472139979E-002 -0.16954075061828180        0.0000000000000000     
  0.23215032409196312      -0.11403438879612654        0.0000000000000000     
 -0.10992576764108207      -0.27480753498377253        0.0000000000000000     
 -0.11340848358766416      -0.26816214038818204        0.0000000000000000     
  -8.6189163362122068E-002 -0.28675788797164947        0.0000000000000000     
  -2.8267806964455806E-002 -0.33059477773417484        0.0000000000000000     
   6.0355585605334675E-002 -0.39967280967575808        0.0000000000000000     
  0.17912578114222327       0.47732852672285631        0.0000000000000000     
  0.27080102414779478       0.74201908992446908        0.0000000000000000     