 <VTKFile type="UnstructuredGrid"  version="0.1"   >
 <UnstructuredGrid>
 <Piece  NumberOfPoints="          1600 "  NumberOfCells="         1024 ">
 <Points>
 <DataArray  type="Float64" NumberOfComponents="3"  format="ascii" >
   0.0000000000000000        0.0000000000000000        0.0000000000000000     
   3.1250000000000000E-002   0.0000000000000000        0.0000000000000000     
   6.2500000000000000E-002   0.0000000000000000        0.0000000000000000     
   9.3750000000000000E-002   0.0000000000000000        0.0000000000000000     
  0.12500000000000000        0.0000000000000000        0.0000000000000000     
   0.0000000000000000        3.1250000000000000E-002   0.0000000000000000     
   3.1250000000000000E-002   3.1250000000000000E-002   0.0000000000000000     
   6.2500000000000000E-002   3.1250000000000000E-002   0.0000000000000000     
   9.3750000000000000E-002   3.1250000000000000E-002   0.0000000000000000     
  0.12500000000000000        3.1250000000000000E-002   0.0000000000000000     
   0.0000000000000000        6.2500000000000000E-002   0.0000000000000000     
   3.1250000000000000E-002   6.2500000000000000E-002   0.0000000000000000     
   6.2500000000000000E-002   6.2500000000000000E-002   0.0000000000000000     
   9.3750000000000000E-002   6.2500000000000000E-002   0.0000000000000000     
  0.12500000000000000        6.2500000000000000E-002   0.0000000000000000     
   0.0000000000000000        9.3750000000000000E-002   0.0000000000000000     
   3.1250000000000000E-002   9.3750000000000000E-002   0.0000000000000000     
   6.2500000000000000E-002   9.3750000000000000E-002   0.0000000000000000     
   9.3750000000000000E-002   9.3750000000000000E-002   0.0000000000000000     
  0.12500000000000000        9.3750000000000000E-002   0.0000000000000000     
   0.0000000000000000       0.12500000000000000        0.0000000000000000     
   3.1250000000000000E-002  0.12500000000000000        0.0000000000000000     
   6.2500000000000000E-002  0.12500000000000000        0.0000000000000000     
   9.3750000000000000E-002  0.12500000000000000        0.0000000000000000     
  0.12500000000000000       0.12500000000000000        0.0000000000000000     
  0.12500000000000000        0.0000000000000000        0.0000000000000000     
  0.15625000000000000        0.0000000000000000        0.0000000000000000     
  0.18750000000000000        0.0000000000000000        0.0000000000000000     
  0.21875000000000000        0.0000000000000000        0.0000000000000000     
  0.25000000000000000        0.0000000000000000        0.0000000000000000     
  0.12500000000000000        3.1250000000000000E-002   0.0000000000000000     
  0.15625000000000000        3.1250000000000000E-002   0.0000000000000000     
  0.18750000000000000        3.1250000000000000E-002   0.0000000000000000     
  0.21875000000000000        3.1250000000000000E-002   0.0000000000000000     
  0.25000000000000000        3.1250000000000000E-002   0.0000000000000000     
  0.12500000000000000        6.2500000000000000E-002   0.0000000000000000     
  0.15625000000000000        6.2500000000000000E-002   0.0000000000000000     
  0.18750000000000000        6.2500000000000000E-002   0.0000000000000000     
  0.21875000000000000        6.2500000000000000E-002   0.0000000000000000     
  0.25000000000000000        6.2500000000000000E-002   0.0000000000000000     
  0.12500000000000000        9.3750000000000000E-002   0.0000000000000000     
  0.15625000000000000        9.3750000000000000E-002   0.0000000000000000     
  0.18750000000000000        9.3750000000000000E-002   0.0000000000000000     
  0.21875000000000000        9.3750000000000000E-002   0.0000000000000000     
  0.25000000000000000        9.3750000000000000E-002   0.0000000000000000     
  0.12500000000000000       0.12500000000000000        0.0000000000000000     
  0.15625000000000000       0.12500000000000000        0.0000000000000000     
  0.18750000000000000       0.12500000000000000        0.0000000000000000     
  0.21875000000000000       0.12500000000000000        0.0000000000000000     
  0.25000000000000000       0.12500000000000000        0.0000000000000000     
  0.25000000000000000        0.0000000000000000        0.0000000000000000     
  0.28125000000000000        0.0000000000000000        0.0000000000000000     
  0.31250000000000000        0.0000000000000000        0.0000000000000000     
  0.34375000000000000        0.0000000000000000        0.0000000000000000     
  0.37500000000000000        0.0000000000000000        0.0000000000000000     
  0.25000000000000000        3.1250000000000000E-002   0.0000000000000000     
  0.28125000000000000        3.1250000000000000E-002   0.0000000000000000     
  0.31250000000000000        3.1250000000000000E-002   0.0000000000000000     
  0.34375000000000000        3.1250000000000000E-002   0.0000000000000000     
  0.37500000000000000        3.1250000000000000E-002   0.0000000000000000     
  0.25000000000000000        6.2500000000000000E-002   0.0000000000000000     
  0.28125000000000000        6.2500000000000000E-002   0.0000000000000000     
  0.31250000000000000        6.2500000000000000E-002   0.0000000000000000     
  0.34375000000000000        6.2500000000000000E-002   0.0000000000000000     
  0.37500000000000000        6.2500000000000000E-002   0.0000000000000000     
  0.25000000000000000        9.3750000000000000E-002   0.0000000000000000     
  0.28125000000000000        9.3750000000000000E-002   0.0000000000000000     
  0.31250000000000000        9.3750000000000000E-002   0.0000000000000000     
  0.34375000000000000        9.3750000000000000E-002   0.0000000000000000     
  0.37500000000000000        9.3750000000000000E-002   0.0000000000000000     
  0.25000000000000000       0.12500000000000000        0.0000000000000000     
  0.28125000000000000       0.12500000000000000        0.0000000000000000     
  0.31250000000000000       0.12500000000000000        0.0000000000000000     
  0.34375000000000000       0.12500000000000000        0.0000000000000000     
  0.37500000000000000       0.12500000000000000        0.0000000000000000     
  0.37500000000000000        0.0000000000000000        0.0000000000000000     
  0.40625000000000000        0.0000000000000000        0.0000000000000000     
  0.43750000000000000        0.0000000000000000        0.0000000000000000     
  0.46875000000000000        0.0000000000000000        0.0000000000000000     
  0.50000000000000000        0.0000000000000000        0.0000000000000000     
  0.37500000000000000        3.1250000000000000E-002   0.0000000000000000     
  0.40625000000000000        3.1250000000000000E-002   0.0000000000000000     
  0.43750000000000000        3.1250000000000000E-002   0.0000000000000000     
  0.46875000000000000        3.1250000000000000E-002   0.0000000000000000     
  0.50000000000000000        3.1250000000000000E-002   0.0000000000000000     
  0.37500000000000000        6.2500000000000000E-002   0.0000000000000000     
  0.40625000000000000        6.2500000000000000E-002   0.0000000000000000     
  0.43750000000000000        6.2500000000000000E-002   0.0000000000000000     
  0.46875000000000000        6.2500000000000000E-002   0.0000000000000000     
  0.50000000000000000        6.2500000000000000E-002   0.0000000000000000     
  0.37500000000000000        9.3750000000000000E-002   0.0000000000000000     
  0.40625000000000000        9.3750000000000000E-002   0.0000000000000000     
  0.43750000000000000        9.3750000000000000E-002   0.0000000000000000     
  0.46875000000000000        9.3750000000000000E-002   0.0000000000000000     
  0.50000000000000000        9.3750000000000000E-002   0.0000000000000000     
  0.37500000000000000       0.12500000000000000        0.0000000000000000     
  0.40625000000000000       0.12500000000000000        0.0000000000000000     
  0.43750000000000000       0.12500000000000000        0.0000000000000000     
  0.46875000000000000       0.12500000000000000        0.0000000000000000     
  0.50000000000000000       0.12500000000000000        0.0000000000000000     
  0.50000000000000000        0.0000000000000000        0.0000000000000000     
  0.53125000000000000        0.0000000000000000        0.0000000000000000     
  0.56250000000000000        0.0000000000000000        0.0000000000000000     
  0.59375000000000000        0.0000000000000000        0.0000000000000000     
  0.62500000000000000        0.0000000000000000        0.0000000000000000     
  0.50000000000000000        3.1250000000000000E-002   0.0000000000000000     
  0.53125000000000000        3.1250000000000000E-002   0.0000000000000000     
  0.56250000000000000        3.1250000000000000E-002   0.0000000000000000     
  0.59375000000000000        3.1250000000000000E-002   0.0000000000000000     
  0.62500000000000000        3.1250000000000000E-002   0.0000000000000000     
  0.50000000000000000        6.2500000000000000E-002   0.0000000000000000     
  0.53125000000000000        6.2500000000000000E-002   0.0000000000000000     
  0.56250000000000000        6.2500000000000000E-002   0.0000000000000000     
  0.59375000000000000        6.2500000000000000E-002   0.0000000000000000     
  0.62500000000000000        6.2500000000000000E-002   0.0000000000000000     
  0.50000000000000000        9.3750000000000000E-002   0.0000000000000000     
  0.53125000000000000        9.3750000000000000E-002   0.0000000000000000     
  0.56250000000000000        9.3750000000000000E-002   0.0000000000000000     
  0.59375000000000000        9.3750000000000000E-002   0.0000000000000000     
  0.62500000000000000        9.3750000000000000E-002   0.0000000000000000     
  0.50000000000000000       0.12500000000000000        0.0000000000000000     
  0.53125000000000000       0.12500000000000000        0.0000000000000000     
  0.56250000000000000       0.12500000000000000        0.0000000000000000     
[...]
 <PointData>
 <DataArray  type="Float64" Name="disp" NumberOfComponents="3" format="ascii">
   0.0000000000000000        0.0000000000000000        0.0000000000000000     
   6.0959886675880370E-003   3.7904868993109690E-003   0.0000000000000000     
   1.1666016261982153E-002   7.3239437454749780E-003   0.0000000000000000     
   1.6710082783182353E-002   1.0600370538492027E-002   0.0000000000000000     
   2.1228188231188626E-002   1.3619767278362114E-002   0.0000000000000000     
   0.0000000000000000        0.0000000000000000        0.0000000000000000     
   4.8911671754951437E-003   3.0221949973134317E-003   0.0000000000000000     
   9.5736310150238649E-003   6.0606341429027648E-003   0.0000000000000000     
   1.4047391518586166E-002   9.1153174367679980E-003   0.0000000000000000     
   1.8312448686182044E-002   1.2186244878909134E-002   0.0000000000000000     
   0.0000000000000000        0.0000000000000000        0.0000000000000000     
   3.9535753496926923E-003   2.4251642861430555E-003   0.0000000000000000     
   7.9106101211014763E-003   5.0629939527946661E-003   0.0000000000000000     
   1.1871104314226354E-002   7.9134889999548323E-003   0.0000000000000000     
   1.5835057929067319E-002   1.0976649427623556E-002   0.0000000000000000     
   0.0000000000000000        0.0000000000000000        0.0000000000000000     
   3.2832131901806847E-003   1.9993947657998400E-003   0.0000000000000000     
   6.6769535802149891E-003   4.3310231751506828E-003   0.0000000000000000     
   1.0181221170102913E-002   6.9948852280525293E-003   0.0000000000000000     
   1.3796015959844457E-002   9.9909809245053785E-003   0.0000000000000000     
   0.0000000000000000        0.0000000000000000        0.0000000000000000     
   2.8800806969591203E-003   1.7448864362837860E-003   0.0000000000000000     
   5.8726613923644026E-003   3.8647218099708150E-003   0.0000000000000000     
   8.9777420862158473E-003   6.3595061210610874E-003   0.0000000000000000     
   1.2195322778513453E-002   9.2292393695546024E-003   0.0000000000000000     
   2.1228188231188626E-002   1.3619767278362114E-002   0.0000000000000000     
   2.5433228728948376E-002   1.6612767930035136E-002   0.0000000000000000     
   2.9538100399408986E-002   1.9810006458460979E-002   0.0000000000000000     
   3.3542803242570460E-002   2.3211482863639658E-002   0.0000000000000000     
   3.7447337258432800E-002   2.6817197145571153E-002   0.0000000000000000     
   1.8312448686182044E-002   1.2186244878909134E-002   0.0000000000000000     
   2.2407048431499463E-002   1.5341774899084341E-002   0.0000000000000000     
   2.6369436668226408E-002   1.8650265927051785E-002   0.0000000000000000     
   3.0199613396362870E-002   2.2111717962811476E-002   0.0000000000000000     
   3.3897578615908835E-002   2.5726131006363406E-002   0.0000000000000000     
   1.5835057929067319E-002   1.0976649427623556E-002   0.0000000000000000     
   1.9730732859299813E-002   1.4211291135912300E-002   0.0000000000000000     
   2.3486390998599265E-002   1.7576230024932523E-002   0.0000000000000000     
   2.7102032346965677E-002   2.1071466094684230E-002   0.0000000000000000     
   3.0577656904399050E-002   2.4696999345167420E-002   0.0000000000000000     
   1.3796015959844457E-002   9.9909809245053785E-003   0.0000000000000000     
   1.7404282012349406E-002   1.3221316640519006E-002   0.0000000000000000     
   2.0888963390527551E-002   1.6587898752103186E-002   0.0000000000000000     
   2.4250060094378897E-002   2.0090727259257916E-002   0.0000000000000000     
   2.7487572123903431E-002   2.3729802161983199E-002   0.0000000000000000     
   1.2195322778513453E-002   9.2292393695546024E-003   0.0000000000000000     
   1.5427695890648255E-002   1.2371851412904464E-002   0.0000000000000000     
   1.8577153844011273E-002   1.5685272108563776E-002   0.0000000000000000     
   2.1643696638602515E-002   1.9169501456532536E-002   0.0000000000000000     
   2.4627324274421984E-002   2.2824539456810747E-002   0.0000000000000000     
   3.7447337258432800E-002   2.6817197145571153E-002   0.0000000000000000     
   4.1255869121900796E-002   3.0622367155214446E-002   0.0000000000000000     
   4.4972565507879252E-002   3.4622210743528510E-002   0.0000000000000000     
   4.8597426416368154E-002   3.8816727910513341E-002   0.0000000000000000     
   5.2130451847367511E-002   4.3205918656168935E-002   0.0000000000000000     
   3.3897578615908835E-002   2.5726131006363406E-002   0.0000000000000000     
   3.7486292598201736E-002   2.9522308283314345E-002   0.0000000000000000     
   4.0988715614578959E-002   3.3529053019271081E-002   0.0000000000000000     
   4.4404847665040513E-002   3.7746365214233600E-002   0.0000000000000000     
   4.7734688749586404E-002   4.2174244868201899E-002   0.0000000000000000     
   3.0577656904399050E-002   2.4696999345167420E-002   0.0000000000000000     
   3.3942483653181067E-002   2.8497414688007618E-002   0.0000000000000000     
   3.7225731575593432E-002   3.2517297034830327E-002   0.0000000000000000     
   4.0427400671636131E-002   3.6756646385635569E-002   0.0000000000000000     
   4.3547490941309164E-002   4.1215462740423321E-002   0.0000000000000000     
   2.7487572123903431E-002   2.3729802161983199E-002   0.0000000000000000     
   3.0624442286838804E-002   2.7547686369294250E-002   0.0000000000000000     
   3.3683613390922656E-002   3.1586942790206261E-002   0.0000000000000000     
   3.6665085436154987E-002   3.5847571424719234E-002   0.0000000000000000     
   3.9568858422535810E-002   4.0329572272833188E-002   0.0000000000000000     
   2.4627324274421984E-002   2.2824539456810747E-002   0.0000000000000000     
   2.7532168499174933E-002   2.6673123327174239E-002   0.0000000000000000     
   3.0362361060566646E-002   3.0737990285398867E-002   0.0000000000000000     
   3.3117901958597103E-002   3.5019140331484615E-002   0.0000000000000000     
   3.5798791193266330E-002   3.9516573465431484E-002   0.0000000000000000     
   5.2130451847367511E-002   4.3205918656168935E-002   0.0000000000000000     
   5.5569498226630973E-002   4.7794964754608829E-002   0.0000000000000000     
   5.8912421979912213E-002   5.2589047979946575E-002   0.0000000000000000     
   6.2159223107211226E-002   5.7588168332182152E-002   0.0000000000000000     
   6.5309901608528009E-002   6.2792325811315580E-002   0.0000000000000000     
   4.7734688749586404E-002   4.2174244868201899E-002   0.0000000000000000     
   5.0974728883529323E-002   4.6806249306318132E-002   0.0000000000000000     
   5.4121458082181995E-002   5.1635935853724446E-002   0.0000000000000000     
   5.7174876345544419E-002   5.6663304510420807E-002   0.0000000000000000     
   6.0134983673616596E-002   6.1888355276407250E-002   0.0000000000000000     
   4.3547490941309164E-002   4.1215462740423321E-002   0.0000000000000000     
   4.6582405450281930E-002   4.5880956193644136E-002   0.0000000000000000     
   4.9528547264223829E-002   5.0740336839748539E-002   0.0000000000000000     
   5.2385916383134848E-002   5.5793604678736508E-002   0.0000000000000000     
   5.5154512807015006E-002   6.1040759710608072E-002   0.0000000000000000     
   3.9568858422535810E-002   4.0329572272833188E-002   0.0000000000000000     
   4.2392527926888808E-002   4.5019085416586814E-002   0.0000000000000000     
   4.5133689526037704E-002   4.9902250938018831E-002   0.0000000000000000     
   4.7792343219982512E-002   5.4979068837129254E-002   0.0000000000000000     
   5.0368489008723198E-002   6.0249539113918067E-002   0.0000000000000000     
   3.5798791193266330E-002   3.9516573465431484E-002   0.0000000000000000     
   3.8405096313349957E-002   4.4220636975146180E-002   0.0000000000000000     
   4.0936884867623653E-002   4.9121678148535353E-002   0.0000000000000000     
   4.3394156856087399E-002   5.4219696985599038E-002   0.0000000000000000     
   4.5776912278741200E-002   5.9514693486337200E-002   0.0000000000000000     
   6.5309901608528009E-002   6.2792325811315580E-002   0.0000000000000000     
   6.8365876074682405E-002   6.8187531849122088E-002   0.0000000000000000     
   7.1328565096494295E-002   7.3759797877376923E-002   0.0000000000000000     
   7.4197968673963666E-002   7.9509123896080114E-002   0.0000000000000000     
   7.6974086807090530E-002   8.5435509905231632E-002   0.0000000000000000     
   6.0134983673616596E-002   6.1888355276407250E-002   0.0000000000000000     
   6.3004328409847515E-002   6.7302455346977832E-002   0.0000000000000000     
   6.5785458897686139E-002   7.2896971917426667E-002   0.0000000000000000     
   6.8478375137132466E-002   7.8671904987753727E-002   0.0000000000000000     
   7.1083077128186511E-002   8.4627254557959011E-002   0.0000000000000000     
   5.5154512807015006E-002   6.1040759710608072E-002   0.0000000000000000     
   5.7837104142421394E-002   6.6475996570693072E-002   0.0000000000000000     
   6.0436457995911158E-002   7.2093509894321298E-002   0.0000000000000000     
   6.2952574367484290E-002   7.7893299681492806E-002   0.0000000000000000     
   6.5385453257140791E-002   8.3875365932207527E-002   0.0000000000000000     
   5.0368489008723198E-002   6.0249539113918067E-002   0.0000000000000000     
   5.2864203272404070E-002   6.5708155520267764E-002   0.0000000000000000     
   5.5281562391169374E-002   7.1349411808060856E-002   0.0000000000000000     
   5.7620566365019124E-002   7.7173307977297323E-002   0.0000000000000000     
   5.9881215193953306E-002   8.3179844027977193E-002   0.0000000000000000     
   4.5776912278741200E-002   5.9514693486337200E-002   0.0000000000000000     
   4.8085625799795521E-002   6.4998932195701936E-002   0.0000000000000000     
   5.0320772083460773E-002   7.0664677658645314E-002   0.0000000000000000     
   5.2482351129736975E-002   7.6511929875167334E-002   0.0000000000000000     
   5.4570362938624106E-002   8.2540688845267982E-002   0.0000000000000000     
   7.6974086807090530E-002   8.5435509905231632E-002   0.0000000000000000     
   7.9654906280482995E-002   9.1530156668481216E-002   0.0000000000000000     
   8.2238413878749195E-002   9.7784264949478630E-002   0.0000000000000000     
   8.4724609601889142E-002  0.10419783474822387        0.0000000000000000     
   8.7113493449902824E-002  0.11077086606471692        0.0000000000000000     
   7.1083077128186511E-002   8.4627254557959011E-002   0.0000000000000000     
   7.3598013937220846E-002   9.0751565812951254E-002   0.0000000000000000     
   7.6021634630608070E-002   9.7033383937639134E-002   0.0000000000000000     
   7.8353939208348128E-002  0.10347270893202271        0.0000000000000000     
   8.0594927670441061E-002  0.11006954079610194        0.0000000000000000     
   6.5385453257140791E-002   8.3875365932207527E-002   0.0000000000000000     
   6.7734033549588818E-002   9.0026783539120636E-002   0.0000000000000000     
   6.9997254129536529E-002   9.6334627394887268E-002   0.0000000000000000     
   7.2175114996983952E-002  0.10279889749950742        0.0000000000000000     
   7.4267616151931087E-002  0.10941959385298110        0.0000000000000000     
   5.9881215193953306E-002   8.3179844027977193E-002   0.0000000000000000     
   6.2062965117586841E-002   8.9355809846989431E-002   0.0000000000000000     
   6.4165272375534627E-002   9.5687995321223046E-002   0.0000000000000000     
   6.6188136967796657E-002  0.10217640045067802        0.0000000000000000     
   6.8131558894372904E-002  0.10882102523535439        0.0000000000000000     
   5.4570362938624106E-002   8.2540688845267982E-002   0.0000000000000000     
   5.6584808641214977E-002   8.8738644736557570E-002   0.0000000000000000     
   5.8525689368602335E-002   9.5093487716646413E-002   0.0000000000000000     
   6.0393005120786200E-002  0.10160521778553450        0.0000000000000000     
   6.2186755897766559E-002  0.10827383494322182        0.0000000000000000     
   8.7113493449902824E-002  0.11077086606471692        0.0000000000000000     
   8.9406770724214671E-002  0.11749007127493645        0.0000000000000000     
   9.1606146726249088E-002  0.12434216275486117        0.0000000000000000     
   9.3711621456006075E-002  0.13132714050449101        0.0000000000000000     
   9.5723194913485632E-002  0.13844500452382602        0.0000000000000000     
   8.0594927670441061E-002  0.11006954079610194        0.0000000000000000     
   8.2745875602634897E-002  0.11681205177846989        0.0000000000000000     
   8.4808058590677679E-002  0.12368841412771958        0.0000000000000000     
   8.6781476634569407E-002  0.13069862784385106        0.0000000000000000     
   8.8666129734310109E-002  0.13784269292686424        0.0000000000000000     
   7.4267616151931087E-002  0.10941959385298110        0.0000000000000000     
   7.6275697598416944E-002  0.11618567722869985        0.0000000000000000     
   7.8200299340480575E-002  0.12308610840005522        0.0000000000000000     
   8.0041421378121952E-002  0.13012088736704722        0.0000000000000000     
   8.1799063711341102E-002  0.13729001412967587        0.0000000000000000     
   6.8131558894372904E-002  0.10882102523535439        0.0000000000000000     
   6.9996236711560814E-002  0.11561094762562633        0.0000000000000000     
   7.1782868975657735E-002  0.12253524557186808        0.0000000000000000     
   7.3491455686663681E-002  0.12959391907407961        0.0000000000000000     
   7.5121996844578612E-002  0.13678696813226088        0.0000000000000000     
   6.2186755897766559E-002  0.10827383494322182        0.0000000000000000     
   6.3907492942066518E-002  0.11508786296924936        0.0000000000000000     
   6.5555767496209200E-002  0.12203582564315814        0.0000000000000000     
   6.7131579560194582E-002  0.12911772296494811        0.0000000000000000     
   6.8634929134022679E-002  0.13633355493461927        0.0000000000000000     
   9.5723194913485632E-002  0.13844500452382602        0.0000000000000000     
   9.7644178205529134E-002  0.14570643284430440        0.0000000000000000     
   9.9477882438977913E-002  0.15312210349736438        0.0000000000000000     
  0.10122430761383197       0.16069201648300588        0.0000000000000000     
  0.10288345373009132       0.16841617180122898        0.0000000000000000     
   8.8666129734310109E-002  0.13784269292686424        0.0000000000000000     
   9.0463111569618601E-002  0.14511457014161400        0.0000000000000000     
   9.2173515820213825E-002  0.15250822025295499        0.0000000000000000     
   9.3797342486095781E-002  0.16002364326088719        0.0000000000000000     
   9.5334591567264454E-002  0.16766083916541064        0.0000000000000000     
   8.1799063711341102E-002  0.13729001412967587        0.0000000000000000     
   8.3472618887265856E-002  0.14457692974382122        0.0000000000000000     
   8.5061479453024155E-002  0.15196507526536324        0.0000000000000000     
   8.6565645408615985E-002  0.15945445069430200        0.0000000000000000     
   8.7985116754041318E-002  0.16704505603063746        0.0000000000000000     
   7.5121996844578612E-002  0.13678696813226088        0.0000000000000000     
   7.6672700158470899E-002  0.14409351165092604        0.0000000000000000     
   7.8141773337408876E-002  0.15149266853458923        0.0000000000000000     
   7.9529216381392570E-002  0.15898443878325030        0.0000000000000000     
   8.0835029290421925E-002  0.16656882239690940        0.0000000000000000     
   6.8634929134022679E-002  0.13633355493461927        0.0000000000000000     
   7.0063355383233744E-002  0.14366431586292858        0.0000000000000000     
   7.1414397473368030E-002  0.15109100006063286        0.0000000000000000     
   7.2688055404425522E-002  0.15861360752773221        0.0000000000000000     
   7.3884329176406249E-002  0.16623213826422650        0.0000000000000000     
   0.0000000000000000        0.0000000000000000        0.0000000000000000     
   2.8800806969591203E-003   1.7448864362837860E-003   0.0000000000000000     
   5.8726613923644026E-003   3.8647218099708150E-003   0.0000000000000000     
   8.9777420862158473E-003   6.3595061210610874E-003   0.0000000000000000     
   1.2195322778513453E-002   9.2292393695546024E-003   0.0000000000000000     
   0.0000000000000000        0.0000000000000000        0.0000000000000000     
   2.6103346450931202E-003   1.5889754017405955E-003   0.0000000000000000     
   5.2897497316076762E-003   3.5567739775193750E-003   0.0000000000000000     
   8.0382452595436672E-003   5.9033957273363401E-003   0.0000000000000000     
   1.0855821228901094E-002   8.6288406511914884E-003   0.0000000000000000     
   0.0000000000000000        0.0000000000000000        0.0000000000000000     
   2.3401318096478050E-003   1.4589977663159713E-003   0.0000000000000000     
   4.7202347720027658E-003   3.2998637980606771E-003   0.0000000000000000     
   7.1403088870648839E-003   5.5225980952341176E-003   0.0000000000000000     
   9.6003541548341578E-003   8.1272006578362935E-003   0.0000000000000000     
   0.0000000000000000        0.0000000000000000        0.0000000000000000     
   2.0694721906231754E-003   1.3549535300099134E-003   0.0000000000000000     
   4.1641165135496748E-003   3.0939912715947206E-003   0.0000000000000000     
   6.2839329687794975E-003   5.2171132247544223E-003   0.0000000000000000     
   8.4289215563126459E-003   7.7243193894890195E-003   0.0000000000000000     
   0.0000000000000000        0.0000000000000000        0.0000000000000000     
   1.7983557880192310E-003   1.2768426928224216E-003   0.0000000000000000     
   3.6213949562483999E-003   2.9391563981215063E-003   0.0000000000000000     
   5.4691175046875078E-003   4.9869411158972544E-003   0.0000000000000000     
   7.3415234333365541E-003   7.4201968461496664E-003   0.0000000000000000     
   1.2195322778513453E-002   9.2292393695546024E-003   0.0000000000000000     
   1.5427695890648255E-002   1.2371851412904464E-002   0.0000000000000000     
   1.8577153844011273E-002   1.5685272108563776E-002   0.0000000000000000     
   2.1643696638602515E-002   1.9169501456532536E-002   0.0000000000000000     
   2.4627324274421984E-002   2.2824539456810747E-002   0.0000000000000000     
   1.0855821228901094E-002   8.6288406511914884E-003   0.0000000000000000     
   1.3689160255748532E-002   1.1650859946830416E-002   0.0000000000000000     
   1.6484944956154563E-002   1.4887204811998714E-002   0.0000000000000000     
   1.9243175330119180E-002   1.8337875246696382E-002   0.0000000000000000     
   2.1963851377642389E-002   2.2002871250923425E-002   0.0000000000000000     
   9.6003541548341578E-003   8.1272006578362935E-003   0.0000000000000000     
   1.2076860869202431E-002   1.1046306736058597E-002   0.0000000000000000     
   1.4546319324061552E-002   1.4212551580092415E-002   0.0000000000000000     
   1.7008729519411514E-002   1.7625935189937755E-002   0.0000000000000000     
   1.9464091455252325E-002   2.1286457565594614E-002   0.0000000000000000     
   8.4289215563126459E-003   7.7243193894890195E-003   0.0000000000000000     
   1.0590797731009948E-002   1.0558191780589006E-002   0.0000000000000000     
   1.2761276947732240E-002   1.3661312412844885E-002   0.0000000000000000     
   1.4940359206479523E-002   1.7033681286256649E-002   0.0000000000000000     
   1.7128044507251795E-002   2.0675298400824306E-002   0.0000000000000000     
   7.3415234333365541E-003   7.4201968461496664E-003   0.0000000000000000     
   9.2309708411710822E-003   1.0186515080421650E-002   0.0000000000000000     
   1.1129817827166631E-002   1.3233487310256120E-002   0.0000000000000000     
   1.3038064391323205E-002   1.6561113535653073E-002   0.0000000000000000     
   1.4955710533640806E-002   2.0169393756612509E-002   0.0000000000000000     
   2.4627324274421984E-002   2.2824539456810747E-002   0.0000000000000000     
   2.7532168499174933E-002   2.6673123327174239E-002   0.0000000000000000     