 <VTKFile type="UnstructuredGrid"  version="0.1"   >
 <UnstructuredGrid>
 <Piece  NumberOfPoints="          1600 "  NumberOfCells="         1024 ">
 <Points>
 <DataArray  type="Float64" NumberOfComponents="3"  format="ascii" >
   0.0000000000000000        0.0000000000000000        0.0000000000000000     
   3.1250000000000000E-002   0.0000000000000000        0.0000000000000000     
   6.2500000000000000E-002   0.0000000000000000        0.0000000000000000     
   9.3750000000000000E-002   0.0000000000000000        0.0000000000000000     
  0.12500000000000000        0.0000000000000000        0.0000000000000000     
   0.0000000000000000        3.1250000000000000E-002   0.0000000000000000     
   3.1250000000000000E-002   3.1250000000000000E-002   0.0000000000000000     
   6.2500000000000000E-002   3.1250000000000000E-002   0.0000000000000000     
   9.3750000000000000E-002   3.1250000000000000E-002   0.0000000000000000     
  0.12500000000000000        3.1250000000000000E-002   0.0000000000000000     
   0.0000000000000000        6.2500000000000000E-002   0.0000000000000000     
   3.1250000000000000E-002   6.2500000000000000E-002   0.0000000000000000     
   6.2500000000000000E-002   6.2500000000000000E-002   0.0000000000000000     
   9.3750000000000000E-002   6.2500000000000000E-002   0.0000000000000000     
  0.12500000000000000        6.2500000000000000E-002   0.0000000000000000     
   0.0000000000000000        9.3750000000000000E-002   0.0000000000000000     
   3.1250000000000000E-002   9.3750000000000000E-002   0.0000000000000000     
   6.2500000000000000E-002   9.3750000000000000E-002   0.0000000000000000     
   9.3750000000000000E-002   9.3750000000000000E-002   0.0000000000000000     
  0.12500000000000000        9.3750000000000000E-002   0.0000000000000000     
   0.0000000000000000       0.12500000000000000        0.0000000000000000     
   3.1250000000000000E-002  0.12500000000000000        0.0000000000000000     
   6.2500000000000000E-002  0.12500000000000000        0.0000000000000000     
   9.3750000000000000E-002  0.12500000000000000        0.0000000000000000     
  0.12500000000000000       0.12500000000000000        0.0000000000000000     
  0.12500000000000000        0.0000000000000000        0.0000000000000000     
  0.15625000000000000        0.0000000000000000        0.0000000000000000     
  0.18750000000000000        0.0000000000000000        0.0000000000000000     
  0.21875000000000000        0.0000000000000000        0.0000000000000000     
  0.25000000000000000        0.0000000000000000        0.0000000000000000     
  0.12500000000000000        3.1250000000000000E-002   0.0000000000000000     
  0.15625000000000000        3.1250000000000000E-002   0.0000000000000000     
  0.18750000000000000        3.1250000000000000E-002   0.0000000000000000     
  0.21875000000000000        3.1250000000000000E-002   0.0000000000000000     
  0.25000000000000000        3.1250000000000000E-002   0.0000000000000000     
  0.12500000000000000        6.2500000000000000E-002   0.0000000000000000     
  0.15625000000000000        6.2500000000000000E-002   0.0000000000000000     
  0.18750000000000000        6.2500000000000000E-002   0.0000000000000000     
  0.21875000000000000        6.2500000000000000E-002   0.0000000000000000     
  0.25000000000000000        6.2500000000000000E-002   0.0000000000000000     
  0.12500000000000000        9.3750000000000000E-002   0.0000000000000000     
  0.15625000000000000        9.3750000000000000E-002   0.0000000000000000     
  0.18750000000000000        9.3750000000000000E-002   0.0000000000000000     
  0.21875000000000000        9.3750000000000000E-002   0.0000000000000000     
  0.25000000000000000        9.3750000000000000E-002   0.0000000000000000     
  0.12500000000000000       0.12500000000000000        0.0000000000000000     
  0.15625000000000000       0.12500000000000000        0.0000000000000000     
  0.18750000000000000       0.12500000000000000        0.0000000000000000     
  0.21875000000000000       0.12500000000000000        0.0000000000000000     
  0.25000000000000000       0.12500000000000000        0.0000000000000000     
  0.25000000000000000        0.0000000000000000        0.0000000000000000     
  0.28125000000000000        0.0000000000000000        0.0000000000000000     
  0.31250000000000000        0.0000000000000000        0.0000000000000000     
  0.34375000000000000        0.0000000000000000        0.0000000000000000     
  0.37500000000000000        0.0000000000000000        0.0000000000000000     
  0.25000000000000000        3.1250000000000000E-002   0.0000000000000000     
  0.28125000000000000        3.1250000000000000E-002   0.0000000000000000     
  0.31250000000000000        3.1250000000000000E-002   0.0000000000000000     
  0.34375000000000000        3.1250000000000000E-002   0.0000000000000000     
  0.37500000000000000        3.1250000000000000E-002   0.0000000000000000     
  0.25000000000000000        6.2500000000000000E-002   0.0000000000000000     
  0.28125000000000000        6.2500000000000000E-002   0.0000000000000000     
  0.31250000000000000        6.2500000000000000E-002   0.0000000000000000     
  0.34375000000000000        6.2500000000000000E-002   0.0000000000000000     
  0.37500000000000000        6.2500000000000000E-002   0.0000000000000000     
  0.25000000000000000        9.3750000000000000E-002   0.0000000000000000     
  0.28125000000000000        9.3750000000000000E-002   0.0000000000000000     
  0.31250000000000000        9.3750000000000000E-002   0.0000000000000000     
  0.34375000000000000        9.3750000000000000E-002   0.0000000000000000     
  0.37500000000000000        9.3750000000000000E-002   0.0000000000000000     
  0.25000000000000000       0.12500000000000000        0.0000000000000000     
  0.28125000000000000       0.12500000000000000        0.0000000000000000     
  0.31250000000000000       0.12500000000000000        0.0000000000000000     
  0.34375000000000000       0.12500000000000000        0.0000000000000000     
  0.37500000000000000       0.12500000000000000        0.0000000000000000     
  0.37500000000000000        0.0000000000000000        0.0000000000000000     
  0.40625000000000000        0.0000000000000000        0.0000000000000000     
  0.43750000000000000        0.0000000000000000        0.0000000000000000     
  0.46875000000000000        0.0000000000000000        0.0000000000000000     
  0.50000000000000000        0.0000000000000000        0.0000000000000000     
  0.37500000000000000        3.1250000000000000E-002   0.0000000000000000     
  0.40625000000000000        3.1250000000000000E-002   0.0000000000000000     
  0.43750000000000000        3.1250000000000000E-002   0.0000000000000000     
  0.46875000000000000        3.1250000000000000E-002   0.0000000000000000     
  0.50000000000000000        3.1250000000000000E-002   0.0000000000000000     
  0.37500000000000000        6.2500000000000000E-002   0.0000000000000000     
  0.40625000000000000        6.2500000000000000E-002   0.0000000000000000     
  0.43750000000000000        6.2500000000000000E-002   0.0000000000000000     
  0.46875000000000000        6.2500000000000000E-002   0.0000000000000000     
  0.50000000000000000        6.2500000000000000E-002   0.0000000000000000     
  0.37500000000000000        9.3750000000000000E-002   0.0000000000000000     
  0.40625000000000000        9.3750000000000000E-002   0.0000000000000000     
  0.43750000000000000        9.3750000000000000E-002   0.0000000000000000     
  0.46875000000000000        9.3750000000000000E-002   0.0000000000000000     
  0.50000000000000000        9.3750000000000000E-002   0.0000000000000000     
  0.37500000000000000       0.12500000000000000        0.0000000000000000     
  0.40625000000000000       0.12500000000000000        0.0000000000000000     
  0.43750000000000000       0.12500000000000000        0.0000000000000000     
  0.46875000000000000       0.12500000000000000        0.0000000000000000     
  0.50000000000000000       0.12500000000000000        0.0000000000000000     
  0.50000000000000000        0.0000000000000000        0.0000000000000000     
  0.53125000000000000        0.0000000000000000        0.0000000000000000     
  0.56250000000000000        0.0000000000000000        0.0000000000000000     
  0.59375000000000000        0.0000000000000000        0.0000000000000000     
  0.62500000000000000        0.0000000000000000        0.0000000000000000     
  0.50000000000000000        3.1250000000000000E-002   0.0000000000000000     
  0.53125000000000000        3.1250000000000000E-002   0.0000000000000000     
  0.56250000000000000        3.1250000000000000E-002   0.0000000000000000     
  0.59375000000000000        3.1250000000000000E-002   0.0000000000000000     
  0.62500000000000000        3.1250000000000000E-002   0.0000000000000000     
  0.50000000000000000        6.2500000000000000E-002   0.0000000000000000     
  0.53125000000000000        6.2500000000000000E-002   0.0000000000000000     
  0.56250000000000000        6.2500000000000000E-002   0.0000000000000000     
  0.59375000000000000        6.2500000000000000E-002   0.0000000000000000     
  0.62500000000000000        6.2500000000000000E-002   0.0000000000000000     
  0.50000000000000000        9.3750000000000000E-002   0.0000000000000000     
  0.53125000000000000        9.3750000000000000E-002   0.0000000000000000     
  0.56250000000000000        9.3750000000000000E-002   0.0000000000000000     
  0.59375000000000000        9.3750000000000000E-002   0.0000000000000000     
  0.62500000000000000        9.3750000000000000E-002   0.0000000000000000     
  0.50000000000000000       0.12500000000000000        0.0000000000000000     
  0.53125000000000000       0.12500000000000000        0.0000000000000000     
  0.56250000000000000       0.12500000000000000        0.0000000000000000     
[...]
 <PointData>
 <DataArray  type="Float64" Name="disp" NumberOfComponents="3" format="ascii">
   0.0000000000000000        0.0000000000000000        0.0000000000000000     
   6.0959469670651420E-003   3.7904248714784716E-003   0.0000000000000000     
   1.1665979433941945E-002   7.3238360169493068E-003   0.0000000000000000     
   1.6710097400630404E-002   1.0600233436412506E-002   0.0000000000000000     
   2.1228300867130526E-002   1.3619617129868068E-002   0.0000000000000000     
   0.0000000000000000        0.0000000000000000        0.0000000000000000     
   4.8911472558126508E-003   3.0221512193490084E-003   0.0000000000000000     
   9.5736296973045910E-003   6.0605402992318994E-003   0.0000000000000000     
   1.4047447324475821E-002   9.1151672396486728E-003   0.0000000000000000     
   1.8312600137326340E-002   1.2186032040599331E-002   0.0000000000000000     
   0.0000000000000000        0.0000000000000000        0.0000000000000000     
   3.9535698380602953E-003   2.4251295977565316E-003   0.0000000000000000     
   7.9106277356569433E-003   5.0629082809582710E-003   0.0000000000000000     
   1.1871173692789946E-002   7.9133360496052192E-003   0.0000000000000000     
   1.5835207709459301E-002   1.0976412903697375E-002   0.0000000000000000     
   0.0000000000000000        0.0000000000000000        0.0000000000000000     
   3.2832147138080721E-003   1.9993600067010416E-003   0.0000000000000000     
   6.6769735489989991E-003   4.3309399621284227E-003   0.0000000000000000     
   1.0181276505572778E-002   6.9947398662821431E-003   0.0000000000000000     
   1.3796123583529414E-002   9.9907597191622056E-003   0.0000000000000000     
   0.0000000000000000        0.0000000000000000        0.0000000000000000     
   2.8800818830559847E-003   1.7448424461825385E-003   0.0000000000000000     
   5.8726671373307577E-003   3.8646353427423540E-003   0.0000000000000000     
   8.9777557628243215E-003   6.3593786896794461E-003   0.0000000000000000     
   1.2195347759536674E-002   9.2290724869938164E-003   0.0000000000000000     
   2.1228300867130526E-002   1.3619617129868068E-002   0.0000000000000000     
   2.5433445311345341E-002   1.6612583276136749E-002   0.0000000000000000     
   2.9538386211177874E-002   1.9809728054039299E-002   0.0000000000000000     
   3.3543123566628134E-002   2.3211051463575716E-002   0.0000000000000000     
   3.7447657377696106E-002   2.6816553504746009E-002   0.0000000000000000     
   1.8312600137326340E-002   1.2186032040599331E-002   0.0000000000000000     
   2.2407292134831690E-002   1.5341490427661655E-002   0.0000000000000000     
   2.6369727315967394E-002   1.8649898126413440E-002   0.0000000000000000     
   3.0199905680733472E-002   2.2111255136854677E-002   0.0000000000000000     
   3.3897827229129908E-002   2.5725561458985365E-002   0.0000000000000000     
   1.5835207709459301E-002   1.0976412903697375E-002   0.0000000000000000     
   1.9730951572323959E-002   1.4210969448982287E-002   0.0000000000000000     
   2.3486627068042859E-002   1.7575836291207507E-002   0.0000000000000000     
   2.7102234196616008E-002   2.1071013430373032E-002   0.0000000000000000     
   3.0577772958043401E-002   2.4696500866478854E-002   0.0000000000000000     
   1.3796123583529414E-002   9.9907597191622056E-003   0.0000000000000000     
   1.7404423623822163E-002   1.3221020340098645E-002   0.0000000000000000     
   2.0889085467404266E-002   1.6587542548421503E-002   0.0000000000000000     
   2.4250109114275747E-002   2.0090326344130782E-002   0.0000000000000000     
   2.7487494564436585E-002   2.3729371727226473E-002   0.0000000000000000     
   1.2195347759536674E-002   9.2290724869938164E-003   0.0000000000000000     
   1.5427708289326282E-002   1.2371643101010722E-002   0.0000000000000000     
   1.8577102514051619E-002   1.5685016898055425E-002   0.0000000000000000     
   2.1643530433712681E-002   1.9169193878127926E-002   0.0000000000000000     
   2.4626992048309461E-002   2.2824174041228228E-002   0.0000000000000000     
   3.7447657377696106E-002   2.6816553504746009E-002   0.0000000000000000     
   4.1256353026597331E-002   3.0621615969511597E-002   0.0000000000000000     
   4.4973575895547339E-002   3.4621620649833908E-002   0.0000000000000000     
   4.8599325984546131E-002   3.8816567545712964E-002   0.0000000000000000     
   5.2133603293593705E-002   4.3206456657148729E-002   0.0000000000000000     
   3.3897827229129908E-002   2.5725561458985365E-002   0.0000000000000000     
   3.7486649776206020E-002   2.9521666788080103E-002   0.0000000000000000     
   4.0989531137011127E-002   3.3528420819413471E-002   0.0000000000000000     
   4.4406471311545230E-002   3.7745823552985475E-002   0.0000000000000000     
   4.7737470299808328E-002   4.2173874988796121E-002   0.0000000000000000     
   3.0577772958043401E-002   2.4696500866478854E-002   0.0000000000000000     
   3.3942637099262478E-002   2.8496865959531294E-002   0.0000000000000000     
   3.7226220367210683E-002   3.2516676069536662E-002   0.0000000000000000     
   4.0428522761888019E-002   3.6755931196494958E-002   0.0000000000000000     
   4.3549544283294481E-002   4.1214631340406170E-002   0.0000000000000000     
   2.7487494564436585E-002   2.3729371727226473E-002   0.0000000000000000     
   3.0624314995766705E-002   2.7547213483865182E-002   0.0000000000000000     
   3.3683643586146006E-002   3.1586386400203482E-002   0.0000000000000000     
   3.6665480335574499E-002   3.5846890476241393E-002   0.0000000000000000     
   3.9569825244052170E-002   4.0328725711978895E-002   0.0000000000000000     
   2.4626992048309461E-002   2.2824174041228228E-002   0.0000000000000000     
   2.7531683465718697E-002   2.6672709361081751E-002   0.0000000000000000     
   3.0361800793817104E-002   3.0737551811413938E-002   0.0000000000000000     
   3.3117344032604676E-002   3.5018701392224780E-002   0.0000000000000000     
   3.5798313182081411E-002   3.9516158103514276E-002   0.0000000000000000     
   5.2133603293593705E-002   4.3206456657148729E-002   0.0000000000000000     
   5.5573712681841518E-002   4.7795753806402309E-002   0.0000000000000000     
   5.8916959008441024E-002   5.2588924815734781E-002   0.0000000000000000     
   6.2163342273392208E-002   5.7585969685146149E-002   0.0000000000000000     
   6.5312862476695099E-002   6.2786888414636394E-002   0.0000000000000000     
   4.7737470299808328E-002   4.2173874988796121E-002   0.0000000000000000     
   5.0978509150506557E-002   4.6806044354848794E-002   0.0000000000000000     
   5.4125568912346080E-002   5.1635800879146918E-002   0.0000000000000000     
   5.7178649585326903E-002   5.6663144561690477E-002   0.0000000000000000     
   6.0137751169449000E-002   6.1888075402479481E-002   0.0000000000000000     
   4.3549544283294481E-002   4.1214631340406170E-002   0.0000000000000000     
   4.6585225311901922E-002   4.5880263924590575E-002   0.0000000000000000     
   4.9531506228182177E-002   5.0740316372368414E-002   0.0000000000000000     
   5.2388387032135261E-002   5.5794788683739695E-002   0.0000000000000000     
   5.5155867723761173E-002   6.1043680858704409E-002   0.0000000000000000     
   3.9569825244052170E-002   4.0328725711978895E-002   0.0000000000000000     
   4.2393861166027592E-002   4.5018412515627639E-002   0.0000000000000000     
   4.5134770955949310E-002   4.9902471295399271E-002   0.0000000000000000     
   4.7792554613817317E-002   5.4980902051293787E-002   0.0000000000000000     
   5.0367212139631620E-002   6.0253704783311178E-002   0.0000000000000000     
   3.5798313182081411E-002   3.9516158103514276E-002   0.0000000000000000     
   3.8404416712883582E-002   4.4220490127959991E-002   0.0000000000000000     
   4.0935363095647465E-002   4.9122265648239495E-002   0.0000000000000000     
   4.3391152330373044E-002   5.4221484664352754E-002   0.0000000000000000     
   4.5771784417060347E-002   5.9518147176299795E-002   0.0000000000000000     
   6.5312862476695099E-002   6.2786888414636394E-002   0.0000000000000000     
   6.8368691347442612E-002   6.8178429350738284E-002   0.0000000000000000     
   7.1334000614727708E-002   7.3747340839984535E-002   0.0000000000000000     
   7.4208790278550374E-002   7.9493622882375145E-002   0.0000000000000000     
   7.6993060338910610E-002   8.5417275477910143E-002   0.0000000000000000     
   6.0137751169449000E-002   6.1888075402479481E-002   0.0000000000000000     
   6.3007131802506888E-002   6.7301765866919397E-002   0.0000000000000000     
   6.5791049622295067E-002   7.2895388420415652E-002   0.0000000000000000     
   6.8489504628813508E-002   7.8668943062968275E-002   0.0000000000000000     
   7.1102496822062253E-002   8.4622429794577264E-002   0.0000000000000000     
   5.5155867723761173E-002   6.1043680858704409E-002   0.0000000000000000     
   5.7838391727359363E-002   6.6480473400486920E-002   0.0000000000000000     
   6.0440402467229273E-002   7.2098646812311581E-002   0.0000000000000000     
   6.2961899943370939E-002   7.7898201094178374E-002   0.0000000000000000     
   6.5402884155784324E-002   8.3879136246087324E-002   0.0000000000000000     
   5.0367212139631620E-002   6.0253704783311178E-002   0.0000000000000000     
   5.2862471122000029E-002   6.5714551951440894E-002   0.0000000000000000     
   5.5282059149530376E-002   7.1357116015672295E-002   0.0000000000000000     
   5.7625976222222618E-002   7.7181396976005456E-002   0.0000000000000000     
   5.9894222340076797E-002   8.3187394832440281E-002   0.0000000000000000     
   4.5771784417060347E-002   5.9518147176299795E-002   0.0000000000000000     
   4.8079369986428908E-002   6.5004001519781265E-002   0.0000000000000000     
   5.0316019669198325E-002   7.0670796030497821E-002   0.0000000000000000     
   5.2481733465368587E-002   7.6518530708449453E-002   0.0000000000000000     
   5.4576511374939692E-002   8.2547205553636163E-002   0.0000000000000000     
   7.6993060338910610E-002   8.5417275477910143E-002   0.0000000000000000     
   7.9679780335205924E-002   9.1509261099412542E-002   0.0000000000000000     
   8.2261919806833811E-002   9.7760542219705426E-002   0.0000000000000000     
   8.4739478753794284E-002  0.10417111883878877        0.0000000000000000     
   8.7112457176087343E-002  0.11074099095666259        0.0000000000000000     
   7.1102496822062253E-002   8.4622429794577264E-002   0.0000000000000000     
   7.3623414881078986E-002   9.0744849723901858E-002   0.0000000000000000     
   7.6045647484901432E-002   9.7025203959601306E-002   0.0000000000000000     
   7.8369194633529565E-002  0.10346349250167561        0.0000000000000000     
   8.0594056326963412E-002  0.11005971535012474        0.0000000000000000     
   6.5402884155784324E-002   8.3879136246087324E-002   0.0000000000000000     
   6.7757325844771940E-002   9.0029326444672306E-002   0.0000000000000000     
   7.0019195750636282E-002   9.6336645866567261E-002   0.0000000000000000     
   7.2188493873377405E-002  0.10280109451177220        0.0000000000000000     
   7.4265220212995212E-002  0.10942267238028711        0.0000000000000000     
   5.9894222340076797E-002   8.3187394832440281E-002   0.0000000000000000     
   6.2081513226284774E-002   8.9362691261723873E-002   0.0000000000000000     
   6.4182564604038414E-002   9.5694867940603320E-002   0.0000000000000000     
   6.6197376473337746E-002  0.10218392486907854        0.0000000000000000     
   6.8125948834182729E-002  0.10882986204714960        0.0000000000000000     
   5.4576511374939692E-002   8.2547205553636163E-002   0.0000000000000000     
   5.6595977025617472E-002   8.8744944175056614E-002   0.0000000000000000     
   5.8535754045107774E-002   9.5099870181709442E-002   0.0000000000000000     
   6.0395842433410604E-002  0.10161198357359467        0.0000000000000000     
   6.2176242190525942E-002  0.10828128435071227        0.0000000000000000     
   8.7112457176087343E-002  0.11074099095666259        0.0000000000000000     
   8.9391315584991277E-002  0.11745667777414698        0.0000000000000000     
   9.1586514491784413E-002  0.12430469849206198        0.0000000000000000     
   9.3698053896466724E-002  0.13128505311040764        0.0000000000000000     
   9.5725933799038224E-002  0.13839774162918395        0.0000000000000000     
   8.0594056326963412E-002  0.11005971535012474        0.0000000000000000     
   8.2731003360701050E-002  0.11680160141200591        0.0000000000000000     
   8.4790806530240612E-002  0.12367687959437619        0.0000000000000000     
   8.6773465835582028E-002  0.13068554989723560        0.0000000000000000     
   8.8678981276725369E-002  0.13782761232058416        0.0000000000000000     
   7.4265220212995212E-002  0.10942267238028711        0.0000000000000000     
   7.6259906218479154E-002  0.11618983179575317        0.0000000000000000     
   7.8183083338818599E-002  0.12309102508181162        0.0000000000000000     
   8.0034751574013546E-002  0.13012625223846247        0.0000000000000000     
   8.1814910924064010E-002  0.13729551326570569        0.0000000000000000     
   6.8125948834182729E-002  0.10882986204714960        0.0000000000000000     
   6.9978024158325533E-002  0.11562136892538877        0.0000000000000000     
   7.1763344917518387E-002  0.12254713495436828        0.0000000000000000     
   7.3481911111761250E-002  0.12960716013408824        0.0000000000000000     
   7.5133722741054135E-002  0.13680144446454853        0.0000000000000000     
   6.2176242190525942E-002  0.10828128435071227        0.0000000000000000     
   6.3885357180240257E-002  0.11509621280091266        0.0000000000000000     
   6.5531591266339978E-002  0.12204520921204619        0.0000000000000000     
   6.7114944448825153E-002  0.12912827358411291        0.0000000000000000     
   6.8635416727695728E-002  0.13634540591711275        0.0000000000000000     
   9.5725933799038224E-002  0.13839774162918395        0.0000000000000000     
   9.7658699685638936E-002  0.14563208077639517        0.0000000000000000     
   9.9484897042408857E-002  0.15297738728004567        0.0000000000000000     
  0.10120452586934799       0.16043366114013544        0.0000000000000000     
  0.10281758616645634       0.16800090235666443        0.0000000000000000     
   8.8678981276725369E-002  0.13782761232058416        0.0000000000000000     
   9.0494049502495857E-002  0.14509090306875294        0.0000000000000000     
   9.2205367161718774E-002  0.15246325834607302        0.0000000000000000     
   9.3812934254394104E-002  0.15994467815254446        0.0000000000000000     
   9.5316750780521819E-002  0.16753516248816722        0.0000000000000000     
   8.1814910924064010E-002  0.13729551326570569        0.0000000000000000     
   8.3509564020503552E-002  0.14458580579590205        0.0000000000000000     
   8.5104713494865772E-002  0.15198412746141227        0.0000000000000000     
   8.6600359347150671E-002  0.15949047826223639        0.0000000000000000     
   8.7996501577358277E-002  0.16710485819837437        0.0000000000000000     
   7.5133722741054135E-002  0.13680144446454853        0.0000000000000000     
   7.6705243239662005E-002  0.14411678895784255        0.0000000000000000     
   7.8182936041849893E-002  0.15153999462606346        0.0000000000000000     
   7.9566801147617758E-002  0.15907106146921124        0.0000000000000000     
   8.0856838556965668E-002  0.16670998948728588        0.0000000000000000     
   6.8635416727695728E-002  0.13634540591711275        0.0000000000000000     
   7.0081087159971217E-002  0.14368385255457439        0.0000000000000000     
   7.1440034802671082E-002  0.15113085984002644        0.0000000000000000     
   7.2712259655795350E-002  0.15868642777346892        0.0000000000000000     
   7.3897761719343993E-002  0.16635055635490179        0.0000000000000000     
   0.0000000000000000        0.0000000000000000        0.0000000000000000     
   2.8800818830559847E-003   1.7448424461825385E-003   0.0000000000000000     
   5.8726671373307577E-003   3.8646353427423540E-003   0.0000000000000000     
   8.9777557628243215E-003   6.3593786896794461E-003   0.0000000000000000     
   1.2195347759536674E-002   9.2290724869938164E-003   0.0000000000000000     
   0.0000000000000000        0.0000000000000000        0.0000000000000000     
   2.6103313756415027E-003   1.5889232716326221E-003   0.0000000000000000     
   5.2897353038430118E-003   3.5566884098494640E-003   0.0000000000000000     
   8.0382117846045254E-003   5.9032954146505251E-003   0.0000000000000000     
   1.0855760817926044E-002   8.6287442860358068E-003   0.0000000000000000     
   0.0000000000000000        0.0000000000000000        0.0000000000000000     
   2.3401232214020997E-003   1.4589488384828919E-003   0.0000000000000000     
   4.7202048517265491E-003   3.2997931504991510E-003   0.0000000000000000     
   7.1402448909733450E-003   5.5225329360487803E-003   0.0000000000000000     
   9.6002433391424915E-003   8.1271681951317759E-003   0.0000000000000000     
   0.0000000000000000        0.0000000000000000        0.0000000000000000     
   2.0694574203377761E-003   1.3549191467333479E-003   0.0000000000000000     
   4.1640757809813704E-003   3.0939495646914177E-003   0.0000000000000000     
   6.2838550819307839E-003   5.2170912538742082E-003   0.0000000000000000     
   8.4287953231860155E-003   7.7243442142817210E-003   0.0000000000000000     
   0.0000000000000000        0.0000000000000000        0.0000000000000000     
   1.7983339724485306E-003   1.2768341963839904E-003   0.0000000000000000     
   3.6213480916074767E-003   2.9391576524262610E-003   0.0000000000000000     
   5.4690423574768384E-003   4.9869703681268106E-003   0.0000000000000000     
   7.3414167700566147E-003   7.4202723434856430E-003   0.0000000000000000     
   1.2195347759536674E-002   9.2290724869938164E-003   0.0000000000000000     
   1.5427708289326282E-002   1.2371643101010722E-002   0.0000000000000000     
   1.8577102514051619E-002   1.5685016898055425E-002   0.0000000000000000     
   2.1643530433712681E-002   1.9169193878127926E-002   0.0000000000000000     
   2.4626992048309461E-002   2.2824174041228228E-002   0.0000000000000000     
   1.0855760817926044E-002   8.6287442860358068E-003   0.0000000000000000     
   1.3689045241659648E-002   1.1650762029273218E-002   0.0000000000000000     
   1.6484727893657413E-002   1.4887075649630667E-002   0.0000000000000000     
   1.9242808773919342E-002   1.8337685147108151E-002   0.0000000000000000     
   2.1963287882445427E-002   2.2002590521705674E-002   0.0000000000000000     
   9.6002433391424915E-003   8.1271681951317759E-003   0.0000000000000000     
   1.2076674153645569E-002   1.1046301422440823E-002   0.0000000000000000     
   1.4546011291894157E-002   1.4212535112668607E-002   0.0000000000000000     
   1.7008254753888258E-002   1.7625869265815126E-002   0.0000000000000000     
   1.9463404539627874E-002   2.1286303881880374E-002   0.0000000000000000     
   8.4287953231860155E-003   7.7243442142817210E-003   0.0000000000000000     
   1.0590595025284047E-002   1.0558261280513537E-002   0.0000000000000000     
   1.2760952708761852E-002   1.3661395287169247E-002   0.0000000000000000     
   1.4939868373619438E-002   1.7033746234248845E-002   0.0000000000000000     
   1.7127342019856797E-002   2.0675314121752334E-002   0.0000000000000000     
   7.3414167700566147E-003   7.4202723434856430E-003   0.0000000000000000     
   9.2308078565750788E-003   1.0186641603491366E-002   0.0000000000000000     
   1.1129552144260497E-002   1.3233656173132590E-002   0.0000000000000000     
   1.3037649633112871E-002   1.6561316052409319E-002   0.0000000000000000     
   1.4955100323132201E-002   2.0169621241321552E-002   0.0000000000000000     
   2.4626992048309461E-002   2.2824174041228228E-002   0.0000000000000000     
   2.7531683465718697E-002   2.6672709361081751E-002   0.0000000000000000     