 <VTKFile type="UnstructuredGrid"  version="0.1"   >
 <UnstructuredGrid>
 <Piece  NumberOfPoints="          1600 "  NumberOfCells="         1024 ">
 <Points>
 <DataArray  type="Float64" NumberOfComponents="3"  format="ascii" >
   0.0000000000000000        0.0000000000000000        0.0000000000000000     
   3.1250000000000000E-002   0.0000000000000000        0.0000000000000000     
   6.2500000000000000E-002   0.0000000000000000        0.0000000000000000     
   9.3750000000000000E-002   0.0000000000000000        0.0000000000000000     
  0.12500000000000000        0.0000000000000000        0.0000000000000000     
   0.0000000000000000        3.1250000000000000E-002   0.0000000000000000     
   3.1250000000000000E-002   3.1250000000000000E-002   0.0000000000000000     
   6.2500000000000000E-002   3.1250000000000000E-002   0.0000000000000000     
   9.3750000000000000E-002   3.1250000000000000E-002   0.0000000000000000     
  0.12500000000000000        3.1250000000000000E-002   0.0000000000000000     
   0.0000000000000000        6.2500000000000000E-002   0.0000000000000000     
   3.1250000000000000E-002   6.2500000000000000E-002   0.0000000000000000     
   6.2500000000000000E-002   6.2500000000000000E-002   0.0000000000000000     
   9.3750000000000000E-002   6.2500000000000000E-002   0.0000000000000000     
  0.12500000000000000        6.2500000000000000E-002   0.0000000000000000     
   0.0000000000000000        9.3750000000000000E-002   0.0000000000000000     
   3.1250000000000000E-002   9.3750000000000000E-002   0.0000000000000000     
   6.2500000000000000E-002   9.3750000000000000E-002   0.0000000000000000     
   9.3750000000000000E-002   9.3750000000000000E-002   0.0000000000000000     
  0.12500000000000000        9.3750000000000000E-002   0.0000000000000000     
   0.0000000000000000       0.12500000000000000        0.0000000000000000     
   3.1250000000000000E-002  0.12500000000000000        0.0000000000000000     
   6.2500000000000000E-002  0.12500000000000000        0.0000000000000000     
   9.3750000000000000E-002  0.12500000000000000        0.0000000000000000     
  0.12500000000000000       0.12500000000000000        0.0000000000000000     
  0.12500000000000000        0.0000000000000000        0.0000000000000000     
  0.15625000000000000        0.0000000000000000        0.0000000000000000     
  0.18750000000000000        0.0000000000000000        0.0000000000000000     
  0.21875000000000000        0.0000000000000000        0.0000000000000000     
  0.25000000000000000        0.0000000000000000        0.0000000000000000     
  0.12500000000000000        3.1250000000000000E-002   0.0000000000000000     
  0.15625000000000000        3.1250000000000000E-002   0.0000000000000000     
  0.18750000000000000        3.1250000000000000E-002   0.0000000000000000     
  0.21875000000000000        3.1250000000000000E-002   0.0000000000000000     
  0.25000000000000000        3.1250000000000000E-002   0.0000000000000000     
  0.12500000000000000        6.2500000000000000E-002   0.0000000000000000     
  0.15625000000000000        6.2500000000000000E-002   0.0000000000000000     
  0.18750000000000000        6.2500000000000000E-002   0.0000000000000000     
  0.21875000000000000        6.2500000000000000E-002   0.0000000000000000     
  0.25000000000000000        6.2500000000000000E-002   0.0000000000000000     
  0.12500000000000000        9.3750000000000000E-002   0.0000000000000000     
  0.15625000000000000        9.3750000000000000E-002   0.0000000000000000     
  0.18750000000000000        9.3750000000000000E-002   0.0000000000000000     
  0.21875000000000000        9.3750000000000000E-002   0.0000000000000000     
  0.25000000000000000        9.3750000000000000E-002   0.0000000000000000     
  0.12500000000000000       0.12500000000000000        0.0000000000000000     
  0.15625000000000000       0.12500000000000000        0.0000000000000000     
  0.18750000000000000       0.12500000000000000        0.0000000000000000     
  0.21875000000000000       0.12500000000000000        0.0000000000000000     
  0.25000000000000000       0.12500000000000000        0.0000000000000000     
  0.25000000000000000        0.0000000000000000        0.0000000000000000     
  0.28125000000000000        0.0000000000000000        0.0000000000000000     
  0.31250000000000000        0.0000000000000000        0.0000000000000000     
  0.34375000000000000        0.0000000000000000        0.0000000000000000     
  0.37500000000000000        0.0000000000000000        0.0000000000000000     
  0.25000000000000000        3.1250000000000000E-002   0.0000000000000000     
  0.28125000000000000        3.1250000000000000E-002   0.0000000000000000     
  0.31250000000000000        3.1250000000000000E-002   0.0000000000000000     
  0.34375000000000000        3.1250000000000000E-002   0.0000000000000000     
  0.37500000000000000        3.1250000000000000E-002   0.0000000000000000     
  0.25000000000000000        6.2500000000000000E-002   0.0000000000000000     
  0.28125000000000000        6.2500000000000000E-002   0.0000000000000000     
  0.31250000000000000        6.2500000000000000E-002   0.0000000000000000     
  0.34375000000000000        6.2500000000000000E-002   0.0000000000000000     
  0.37500000000000000        6.2500000000000000E-002   0.0000000000000000     
  0.25000000000000000        9.3750000000000000E-002   0.0000000000000000     
  0.28125000000000000        9.3750000000000000E-002   0.0000000000000000     
  0.31250000000000000        9.3750000000000000E-002   0.0000000000000000     
  0.34375000000000000        9.3750000000000000E-002   0.0000000000000000     
  0.37500000000000000        9.3750000000000000E-002   0.0000000000000000     
  0.25000000000000000       0.12500000000000000        0.0000000000000000     
  0.28125000000000000       0.12500000000000000        0.0000000000000000     
  0.31250000000000000       0.12500000000000000        0.0000000000000000     
  0.34375000000000000       0.12500000000000000        0.0000000000000000     
  0.37500000000000000       0.12500000000000000        0.0000000000000000     
  0.37500000000000000        0.0000000000000000        0.0000000000000000     
  0.40625000000000000        0.0000000000000000        0.0000000000000000     
  0.43750000000000000        0.0000000000000000        0.0000000000000000     
  0.46875000000000000        0.0000000000000000        0.0000000000000000     
  0.50000000000000000        0.0000000000000000        0.0000000000000000     
  0.37500000000000000        3.1250000000000000E-002   0.0000000000000000     
  0.40625000000000000        3.1250000000000000E-002   0.0000000000000000     
  0.43750000000000000        3.1250000000000000E-002   0.0000000000000000     
  0.46875000000000000        3.1250000000000000E-002   0.0000000000000000     
  0.50000000000000000        3.1250000000000000E-002   0.0000000000000000     
  0.37500000000000000        6.2500000000000000E-002   0.0000000000000000     
  0.40625000000000000        6.2500000000000000E-002   0.0000000000000000     
  0.43750000000000000        6.2500000000000000E-002   0.0000000000000000     
  0.46875000000000000        6.2500000000000000E-002   0.0000000000000000     
  0.50000000000000000        6.2500000000000000E-002   0.0000000000000000     
  0.37500000000000000        9.3750000000000000E-002   0.0000000000000000     
  0.40625000000000000        9.3750000000000000E-002   0.0000000000000000     
  0.43750000000000000        9.3750000000000000E-002   0.0000000000000000     
  0.46875000000000000        9.3750000000000000E-002   0.0000000000000000     
  0.50000000000000000        9.3750000000000000E-002   0.0000000000000000     
  0.37500000000000000       0.12500000000000000        0.0000000000000000     
  0.40625000000000000       0.12500000000000000        0.0000000000000000     
  0.43750000000000000       0.12500000000000000        0.0000000000000000     
  0.46875000000000000       0.12500000000000000        0.0000000000000000     
  0.50000000000000000       0.12500000000000000        0.0000000000000000     
  0.50000000000000000        0.0000000000000000        0.0000000000000000     
  0.53125000000000000        0.0000000000000000        0.0000000000000000     
  0.56250000000000000        0.0000000000000000        0.0000000000000000     
  0.59375000000000000        0.0000000000000000        0.0000000000000000     
  0.62500000000000000        0.0000000000000000        0.0000000000000000     
  0.50000000000000000        3.1250000000000000E-002   0.0000000000000000     
  0.53125000000000000        3.1250000000000000E-002   0.0000000000000000     
  0.56250000000000000        3.1250000000000000E-002   0.0000000000000000     
  0.59375000000000000        3.1250000000000000E-002   0.0000000000000000     
  0.62500000000000000        3.1250000000000000E-002   0.0000000000000000     
  0.50000000000000000        6.2500000000000000E-002   0.0000000000000000     
  0.53125000000000000        6.2500000000000000E-002   0.0000000000000000     
  0.56250000000000000        6.2500000000000000E-002   0.0000000000000000     
  0.59375000000000000        6.2500000000000000E-002   0.0000000000000000     
  0.62500000000000000        6.2500000000000000E-002   0.0000000000000000     
  0.50000000000000000        9.3750000000000000E-002   0.0000000000000000     
  0.53125000000000000        9.3750000000000000E-002   0.0000000000000000     
  0.56250000000000000        9.3750000000000000E-002   0.0000000000000000     
  0.59375000000000000        9.3750000000000000E-002   0.0000000000000000     
  0.62500000000000000        9.3750000000000000E-002   0.0000000000000000     
  0.50000000000000000       0.12500000000000000        0.0000000000000000     
  0.53125000000000000       0.12500000000000000        0.0000000000000000     
  0.56250000000000000       0.12500000000000000        0.0000000000000000     
[...]
 <PointData>
 <DataArray  type="Float64" Name="disp" NumberOfComponents="3" format="ascii">
   0.0000000000000000        0.0000000000000000        0.0000000000000000     
   6.0953381501573367E-003   3.7918754835278377E-003   0.0000000000000000     
   1.1665552868752559E-002   7.3253907546722199E-003   0.0000000000000000     
   1.6710644155785666E-002   1.0600545813433147E-002   0.0000000000000000     
   2.1230612011256655E-002   1.3617340659810618E-002   0.0000000000000000     
   0.0000000000000000        0.0000000000000000        0.0000000000000000     
   4.8910310562595618E-003   3.0227194697837936E-003   0.0000000000000000     
   9.5737874381378943E-003   6.0610759533353421E-003   0.0000000000000000     
   1.4048269145634999E-002   9.1150694506546472E-003   0.0000000000000000     
   1.8314476178750875E-002   1.2184699961741707E-002   0.0000000000000000     
   0.0000000000000000        0.0000000000000000        0.0000000000000000     
   3.9537357684151847E-003   2.4250579371735350E-003   0.0000000000000000     
   7.9110952613182517E-003   5.0627269147229944E-003   0.0000000000000000     
   1.1872078478709198E-002   7.9130069326483823E-003   0.0000000000000000     
   1.5836685420588029E-002   1.0975897990949692E-002   0.0000000000000000     
   0.0000000000000000        0.0000000000000000        0.0000000000000000     
   3.2834522866242062E-003   1.9988908856970614E-003   0.0000000000000000     
   6.6774763382936274E-003   4.3303436388351779E-003   0.0000000000000000     
   1.0182072155008264E-002   6.9943582594143494E-003   0.0000000000000000     
   1.3797239736768116E-002   9.9909347474345725E-003   0.0000000000000000     
   0.0000000000000000        0.0000000000000000        0.0000000000000000     
   2.8801806108866256E-003   1.7442183153543733E-003   0.0000000000000000     
   5.8729306690640240E-003   3.8639261256718897E-003   0.0000000000000000     
   8.9782501745321926E-003   6.3591234309525492E-003   0.0000000000000000     
   1.2196139127291134E-002   9.2298102311963517E-003   0.0000000000000000     
   2.1230612011256655E-002   1.3617340659810618E-002   0.0000000000000000     
   2.5437045455200671E-002   1.6608442781715468E-002   0.0000000000000000     
   2.9541533507652849E-002   1.9806519667058542E-002   0.0000000000000000     
   3.3544076168613199E-002   2.3211571315839827E-002   0.0000000000000000     
   3.7444673438081715E-002   2.6823597728059333E-002   0.0000000000000000     
   1.8314476178750875E-002   1.2184699961741707E-002   0.0000000000000000     
   2.2409736239789774E-002   1.5339382115603359E-002   0.0000000000000000     
   2.6371377031055958E-002   1.8648530541246447E-002   0.0000000000000000     
   3.0199398552549415E-002   2.2112145238670965E-002   0.0000000000000000     
   3.3893800804270152E-002   2.5730226207876912E-002   0.0000000000000000     
   1.5836685420588029E-002   1.0975897990949692E-002   0.0000000000000000     
   1.9732532933817860E-002   1.4210482208724860E-002   0.0000000000000000     
   2.3487237865261794E-002   1.7575841705071815E-002   0.0000000000000000     
   2.7100800214919851E-002   2.1071976479990567E-002   0.0000000000000000     
   3.0573219982792017E-002   2.4698886533481103E-002   0.0000000000000000     
   1.3797239736768116E-002   9.9909347474345725E-003   0.0000000000000000     
   1.7405435537284911E-002   1.3221743061079972E-002   0.0000000000000000     
   2.0889116010270378E-002   1.6588453158534657E-002   0.0000000000000000     
   2.4248281155724510E-002   2.0091065039798628E-002   0.0000000000000000     
   2.7482930973647315E-002   2.3729578704871888E-002   0.0000000000000000     
   1.2196139127291134E-002   9.2298102311963517E-003   0.0000000000000000     
   1.5428444050190938E-002   1.2373164672668689E-002   0.0000000000000000     
   1.8577011466081688E-002   1.5686364901634955E-002   0.0000000000000000     
   2.1641841374963389E-002   1.9169410918095153E-002   0.0000000000000000     
   2.4622933776836033E-002   2.2822302722049274E-002   0.0000000000000000     
   3.7444673438081715E-002   2.6823597728059333E-002   0.0000000000000000     
   4.1251075016915703E-002   3.0634203949293649E-002   0.0000000000000000     
   4.4971030605972469E-002   3.4634995025119374E-002   0.0000000000000000     
   4.8604540205252011E-002   3.8825970955536512E-002   0.0000000000000000     
   5.2151603814754324E-002   4.3207131740545052E-002   0.0000000000000000     
   3.3893800804270152E-002   2.5730226207876912E-002   0.0000000000000000     
   3.7481183613766955E-002   2.9529673210567028E-002   0.0000000000000000     
   4.0988146808588595E-002   3.3537386008444046E-002   0.0000000000000000     
   4.4414690388735072E-002   3.7753364601507952E-002   0.0000000000000000     
   4.7760814354206406E-002   4.2177608989758753E-002   0.0000000000000000     
   3.0573219982792017E-002   2.4698886533481103E-002   0.0000000000000000     
   3.3937250357813580E-002   2.8500748778932911E-002   0.0000000000000000     
   3.7225644528919799E-002   3.2521740129735487E-002   0.0000000000000000     
   4.0438402496110686E-002   3.6761860585888831E-002   0.0000000000000000     
   4.3575524259386239E-002   4.1221110147392936E-002   0.0000000000000000     
   2.7482930973647315E-002   2.3729578704871888E-002   0.0000000000000000     
   3.0619275249055576E-002   2.7547430654391299E-002   0.0000000000000000     
   3.3683523766966074E-002   3.1588057388993715E-002   0.0000000000000000     
   3.6675676527378832E-002   3.5851458908679162E-002   0.0000000000000000     
   3.9595733530293838E-002   4.0337635213447603E-002   0.0000000000000000     
   2.4622933776836033E-002   2.2822302722049274E-002   0.0000000000000000     
   2.7527258287492945E-002   2.6669718836942177E-002   0.0000000000000000     
   3.0361784522727440E-002   3.0736337786218731E-002   0.0000000000000000     
   3.3126512482539519E-002   3.5022159569878926E-002   0.0000000000000000     
   3.5821442166929188E-002   3.9527184187922761E-002   0.0000000000000000     
   5.2151603814754324E-002   4.3207131740545052E-002   0.0000000000000000     
   5.5594752981157326E-002   4.7786629113740361E-002   0.0000000000000000     
   5.8916519251138923E-002   5.2572614808717763E-002   0.0000000000000000     
   6.2116902624699113E-002   5.7565088825477284E-002   0.0000000000000000     
   6.5195903101837899E-002   6.2764051164018911E-002   0.0000000000000000     
   4.7760814354206406E-002   4.2177608989758753E-002   0.0000000000000000     
   5.1007797349478967E-002   4.6804575725585350E-002   0.0000000000000000     
   5.4136918019029173E-002   5.1628721361376625E-002   0.0000000000000000     
   5.7148176362857024E-002   5.6650045897132566E-002   0.0000000000000000     
   6.0041572380962499E-002   6.1868549332853191E-002   0.0000000000000000     
   4.3575524259386239E-002   4.1221110147392936E-002   0.0000000000000000     
   4.6618769246028272E-002   4.5885380473690576E-002   0.0000000000000000     
   4.9549896883318595E-002   5.0740563224224489E-002   0.0000000000000000     
   5.2368907171257188E-002   5.5786658398994701E-002   0.0000000000000000     
   5.5075800109844072E-002   6.1023665998001207E-002   0.0000000000000000     
   3.9595733530293838E-002   4.0337635213447603E-002   0.0000000000000000     
   4.2427668670805233E-002   4.5029043358056027E-002   0.0000000000000000     
   4.5155455844007153E-002   4.9908140397261401E-002   0.0000000000000000     
   4.7779095049899620E-002   5.4974926331063691E-002   0.0000000000000000     
   5.0298586288482619E-002   6.0229401159462917E-002   0.0000000000000000     
   3.5821442166929188E-002   3.9527184187922761E-002   0.0000000000000000     
   3.8434495623809836E-002   4.4235564378681716E-002   0.0000000000000000     
   4.0953594901094875E-002   4.9131452880487321E-002   0.0000000000000000     
   4.3378739998784319E-002   5.4214849693339527E-002   0.0000000000000000     
   4.5709930916878132E-002   5.9485754817238355E-002   0.0000000000000000     
   6.5195903101837899E-002   6.2764051164018911E-002   0.0000000000000000     
   6.8196729380636117E-002   6.8164831062567890E-002   0.0000000000000000     
   7.1162590159174574E-002   7.3762757759349484E-002   0.0000000000000000     
   7.4093485437453310E-002   7.9557831254363678E-002   0.0000000000000000     
   7.6989415215472284E-002   8.5550051547610487E-002   0.0000000000000000     
   6.0041572380962499E-002   6.1868549332853191E-002   0.0000000000000000     
   6.2860493680684484E-002   6.7284259887473441E-002   0.0000000000000000     
   6.5648327869361825E-002   7.2897205779928240E-002   0.0000000000000000     
   6.8405074946994521E-002   7.8707387010217594E-002   0.0000000000000000     
   7.1130734913582572E-002   8.4714803578341491E-002   0.0000000000000000     
   5.5075800109844072E-002   6.1023665998001207E-002   0.0000000000000000     
   5.7712389877544179E-002   6.6455460222653528E-002   0.0000000000000000     
   6.0320490652822405E-002   7.2085915274361242E-002   0.0000000000000000     
   6.2900102435678770E-002   7.7915031153124342E-002   0.0000000000000000     
   6.5451225226113255E-002   8.3942807858942800E-002   0.0000000000000000     
   5.0298586288482619E-002   6.0229401159462917E-002   0.0000000000000000     
   5.2752417971215174E-002   6.5678432068108181E-002   0.0000000000000000     
   5.5179078509556320E-002   7.1328886242648493E-002   0.0000000000000000     
   5.7578567903506052E-002   7.7180763683083936E-002   0.0000000000000000     
   5.9950886153064369E-002   8.3234064389414442E-002   0.0000000000000000     
   4.5709930916878132E-002   5.9485754817238355E-002   0.0000000000000000     
   4.7980577961697503E-002   6.4953175423837356E-002   0.0000000000000000     
   5.0224091439563592E-002   7.0626118684790004E-002   0.0000000000000000     
   5.2440471350476379E-002   7.6504584600096362E-002   0.0000000000000000     
   5.4629717694435892E-002   8.2588573169756374E-002   0.0000000000000000     
   7.6989415215472284E-002   8.5550051547610487E-002   0.0000000000000000     
   7.9798641114110863E-002   9.1709038348008462E-002   0.0000000000000000     
   8.2469424754248330E-002   9.8004411364476185E-002   0.0000000000000000     
   8.5001766135884740E-002  0.10443617059701366        0.0000000000000000     
   8.7395665259020039E-002  0.11100431604562086        0.0000000000000000     
   7.1130734913582572E-002   8.4714803578341491E-002   0.0000000000000000     
   7.3778903522125794E-002   9.0895047141921093E-002   0.0000000000000000     
   7.6303176525624045E-002   9.7223709358577520E-002   0.0000000000000000     
   7.8703553924077241E-002  0.10370079022831077        0.0000000000000000     
   8.0980035717485466E-002  0.11032628975112088        0.0000000000000000     
   6.5451225226113255E-002   8.3942807858942800E-002   0.0000000000000000     
   6.7932220406710389E-002   9.0147759652813464E-002   0.0000000000000000     
   7.0301449360054613E-002   9.6508400795733112E-002   0.0000000000000000     
   7.2558912086145969E-002  0.10302473128770177        0.0000000000000000     
   7.4704608584984428E-002  0.10969675112871939        0.0000000000000000     
   5.9950886153064369E-002   8.3234064389414442E-002   0.0000000000000000     
   6.2258591767864621E-002   8.9467175880685604E-002   0.0000000000000000     
   6.4464243257540119E-002   9.5858485675942989E-002   0.0000000000000000     
   6.6567840622090896E-002  0.10240799377518660        0.0000000000000000     
   6.8569383861516911E-002  0.10911570017841643        0.0000000000000000     
   5.4629717694435892E-002   8.2588573169756374E-002   0.0000000000000000     
   5.6758017605588483E-002   8.8853295825537498E-002   0.0000000000000000     
   5.8791558218080520E-002   9.5273963999207123E-002   0.0000000000000000     
   6.0730339531912009E-002  0.10185057769076530        0.0000000000000000     
   6.2574361547082943E-002  0.10858313690021199        0.0000000000000000     
   8.7395665259020039E-002  0.11100431604562086        0.0000000000000000     
   8.9622911562161303E-002  0.11768891642965987        0.0000000000000000     
   9.1655294483815583E-002  0.12447004046849278        0.0000000000000000     
   9.3492814023982865E-002  0.13134768816211956        0.0000000000000000     
   9.5135470182663162E-002  0.13832185951054021        0.0000000000000000     
   8.0980035717485466E-002  0.11032628975112088        0.0000000000000000     
   8.3093851471123054E-002  0.11706760922167789        0.0000000000000000     
   8.5006230750264422E-002  0.12389214993465193        0.0000000000000000     
   8.6717173554909474E-002  0.13079991189004303        0.0000000000000000     
   8.8226679885058293E-002  0.13779089508785111        0.0000000000000000     
   7.4704608584984428E-002  0.10969675112871939        0.0000000000000000     
   7.6694580715665539E-002  0.11648236286552850        0.0000000000000000     
   7.8484870337284782E-002  0.12333946904487161        0.0000000000000000     
   8.0075477449842183E-002  0.13026806966674873        0.0000000000000000     
   8.1466402053337744E-002  0.13726816473115980        0.0000000000000000     
   6.8569383861516911E-002  0.10911570017841643        0.0000000000000000     
   7.0425099295788690E-002  0.11593317736121175        0.0000000000000000     
   7.2091213244876731E-002  0.12281199779915181        0.0000000000000000     
   7.3567725708780993E-002  0.12975216149223662        0.0000000000000000     
   7.4854636687501502E-002  0.13675366844046624        0.0000000000000000     
   6.2574361547082943E-002  0.10858313690021199        0.0000000000000000     
   6.4285407211492604E-002  0.11542005270872760        0.0000000000000000     
   6.5825259473040257E-002  0.12230973619749254        0.0000000000000000     
   6.7193918331725930E-002  0.12925218736650684        0.0000000000000000     
   6.8391383787549581E-002  0.13624740621577044        0.0000000000000000     
   9.5135470182663162E-002  0.13832185951054021        0.0000000000000000     
   9.6830869187993995E-002  0.14554158374384582        0.0000000000000000     
   9.8826617268112954E-002  0.15315589009212749        0.0000000000000000     
  0.10112271442302002       0.16116477855538525        0.0000000000000000     
  0.10371916065271521       0.16956824913361904        0.0000000000000000     
   8.8226679885058293E-002  0.13779089508785111        0.0000000000000000     
   8.9799912506626112E-002  0.14499290804656259        0.0000000000000000     
   9.1702034185528261E-002  0.15253375928466389        0.0000000000000000     
   9.3933044921764672E-002  0.16041344880215494        0.0000000000000000     
   9.6492944715335371E-002  0.16863197659903575        0.0000000000000000     
   8.1466402053337744E-002  0.13726816473115980        0.0000000000000000     
   8.2924806424880218E-002  0.14446123289005550        0.0000000000000000     
   8.4717852841578400E-002  0.15196875279538649        0.0000000000000000     
   8.6845541303432278E-002  0.15979072444715267        0.0000000000000000     
   8.9307871810441850E-002  0.16792714784535417        0.0000000000000000     
   7.4854636687501502E-002  0.13675366844046624        0.0000000000000000     
   7.6205550942756300E-002  0.14394655827432445        0.0000000000000000     
   7.7874073236263427E-002  0.15146087062429522        0.0000000000000000     
   7.9860203568022883E-002  0.15929660549037852        0.0000000000000000     
   8.2163941938034696E-002  0.16745376287257432        0.0000000000000000     
   6.8391383787549581E-002  0.13624740621577044        0.0000000000000000     
   6.9642146060254345E-002  0.14344888419936952        0.0000000000000000     
   7.1170695369583314E-002  0.15101011277139018        0.0000000000000000     
   7.2977031715536489E-002  0.15893109193183241        0.0000000000000000     
   7.5061155098113841E-002  0.16721182168069620        0.0000000000000000     
   0.0000000000000000        0.0000000000000000        0.0000000000000000     
   2.8801806108866256E-003   1.7442183153543733E-003   0.0000000000000000     
   5.8729306690640240E-003   3.8639261256718897E-003   0.0000000000000000     
   8.9782501745321926E-003   6.3591234309525492E-003   0.0000000000000000     
   1.2196139127291134E-002   9.2298102311963517E-003   0.0000000000000000     
   0.0000000000000000        0.0000000000000000        0.0000000000000000     
   2.6102195165816204E-003   1.5882732527669598E-003   0.0000000000000000     
   5.2896725887067904E-003   3.5560178297362756E-003   0.0000000000000000     
   8.0383592163755097E-003   5.9032337309079469E-003   0.0000000000000000     
   1.0856279399587783E-002   8.6299209562819747E-003   0.0000000000000000     
   0.0000000000000000        0.0000000000000000        0.0000000000000000     
   2.3398677790883657E-003   1.4582887245563102E-003   0.0000000000000000     
   4.7199164322992808E-003   3.2991622055314794E-003   0.0000000000000000     
   7.1401459596327427E-003   5.5226204429255068E-003   0.0000000000000000     
   9.6005563610887541E-003   8.1286634367383932E-003   0.0000000000000000     
   0.0000000000000000        0.0000000000000000        0.0000000000000000     
   2.0691253984068624E-003   1.3542647307224248E-003   0.0000000000000000     
   4.1636621998414908E-003   3.0933592530575011E-003   0.0000000000000000     
   6.2836104043038883E-003   5.2172835670052280E-003   0.0000000000000000     
   8.4289700117940510E-003   7.7260376725656055E-003   0.0000000000000000     
   0.0000000000000000        0.0000000000000000        0.0000000000000000     
   1.7979923745371105E-003   1.2762012712653034E-003   0.0000000000000000     
   3.6209098913334258E-003   2.9386089723143403E-003   0.0000000000000000     
   5.4687525503889457E-003   4.9872231031471096E-003   0.0000000000000000     
   7.3415203517036695E-003   7.4220436637636132E-003   0.0000000000000000     
   1.2196139127291134E-002   9.2298102311963517E-003   0.0000000000000000     
   1.5428444050190938E-002   1.2373164672668689E-002   0.0000000000000000     
   1.8577011466081688E-002   1.5686364901634955E-002   0.0000000000000000     
   2.1641841374963389E-002   1.9169410918095153E-002   0.0000000000000000     
   2.4622933776836033E-002   2.2822302722049274E-002   0.0000000000000000     
   1.0856279399587783E-002   8.6299209562819747E-003   0.0000000000000000     
   1.3689654366206587E-002   1.1652800138820878E-002   0.0000000000000000     
   1.6484705344094908E-002   1.4888591911487177E-002   0.0000000000000000     
   1.9241432333252744E-002   1.8337296274280868E-002   0.0000000000000000     
   2.1959835333680094E-002   2.1998913227201954E-002   0.0000000000000000     
   9.6005563610887541E-003   8.1286634367383932E-003   0.0000000000000000     
   1.2077162379002512E-002   1.1048702554866398E-002   0.0000000000000000     
   1.4545978755709203E-002   1.4214149165205766E-002   0.0000000000000000     
   1.7007005491208836E-002   1.7625003267756512E-002   0.0000000000000000     
   1.9460242585501414E-002   2.1281264862518624E-002   0.0000000000000000     
   8.4289700117940510E-003   7.7260376725656055E-003   0.0000000000000000     
   1.0590968088578706E-002   1.0560871920805239E-002   0.0000000000000000     
   1.2760831700924583E-002   1.3663036662790728E-002   0.0000000000000000     
   1.4938560848831677E-002   1.7032531898522073E-002   0.0000000000000000     
   1.7124155532299991E-002   2.0669357627999277E-002   0.0000000000000000     
   7.3415203517036695E-003   7.4220436637636132E-003   0.0000000000000000     
   9.2310714949351749E-003   1.0189308236637410E-002   0.0000000000000000     
   1.1129264179741036E-002   1.3235254404242060E-002   0.0000000000000000     
   1.3036098406121254E-002   1.6559882166577562E-002   0.0000000000000000     
   1.4951574174075829E-002   2.0163191523643920E-002   0.0000000000000000     
   2.4622933776836033E-002   2.2822302722049274E-002   0.0000000000000000     
   2.7527258287492945E-002   2.6669718836942177E-002   0.0000000000000000     