 <VTKFile type="UnstructuredGrid"  version="0.1"   >
 <UnstructuredGrid>
 <Piece  NumberOfPoints="          1600 "  NumberOfCells="         1024 ">
 <Points>
 <DataArray  type="Float64" NumberOfComponents="3"  format="ascii" >
   0.0000000000000000        0.0000000000000000        0.0000000000000000     
   3.1250000000000000E-002   0.0000000000000000        0.0000000000000000     
   6.2500000000000000E-002   0.0000000000000000        0.0000000000000000     
   9.3750000000000000E-002   0.0000000000000000        0.0000000000000000     
  0.12500000000000000        0.0000000000000000        0.0000000000000000     
   0.0000000000000000        3.1250000000000000E-002   0.0000000000000000     
   3.1250000000000000E-002   3.1250000000000000E-002   0.0000000000000000     
   6.2500000000000000E-002   3.1250000000000000E-002   0.0000000000000000     
   9.3750000000000000E-002   3.1250000000000000E-002   0.0000000000000000     
  0.12500000000000000        3.1250000000000000E-002   0.0000000000000000     
   0.0000000000000000        6.2500000000000000E-002   0.0000000000000000     
   3.1250000000000000E-002   6.2500000000000000E-002   0.0000000000000000     
   6.2500000000000000E-002   6.2500000000000000E-002   0.0000000000000000     
   9.3750000000000000E-002   6.2500000000000000E-002   0.0000000000000000     
  0.12500000000000000        6.2500000000000000E-002   0.0000000000000000     
   0.0000000000000000        9.3750000000000000E-002   0.0000000000000000     
   3.1250000000000000E-002   9.3750000000000000E-002   0.0000000000000000     
   6.2500000000000000E-002   9.3750000000000000E-002   0.0000000000000000     
   9.3750000000000000E-002   9.3750000000000000E-002   0.0000000000000000     
  0.12500000000000000        9.3750000000000000E-002   0.0000000000000000     
   0.0000000000000000       0.12500000000000000        0.0000000000000000     
   3.1250000000000000E-002  0.12500000000000000        0.0000000000000000     
   6.2500000000000000E-002  0.12500000000000000        0.0000000000000000     
   9.3750000000000000E-002  0.12500000000000000        0.0000000000000000     
  0.12500000000000000       0.12500000000000000        0.0000000000000000     
  0.12500000000000000        0.0000000000000000        0.0000000000000000     
  0.15625000000000000        0.0000000000000000        0.0000000000000000     
  0.18750000000000000        0.0000000000000000        0.0000000000000000     
  0.21875000000000000        0.0000000000000000        0.0000000000000000     
  0.25000000000000000        0.0000000000000000        0.0000000000000000     
  0.12500000000000000        3.1250000000000000E-002   0.0000000000000000     
  0.15625000000000000        3.1250000000000000E-002   0.0000000000000000     
  0.18750000000000000        3.1250000000000000E-002   0.0000000000000000     
  0.21875000000000000        3.1250000000000000E-002   0.0000000000000000     
  0.25000000000000000        3.1250000000000000E-002   0.0000000000000000     
  0.12500000000000000        6.2500000000000000E-002   0.0000000000000000     
  0.15625000000000000        6.2500000000000000E-002   0.0000000000000000     
  0.18750000000000000        6.2500000000000000E-002   0.0000000000000000     
  0.21875000000000000        6.2500000000000000E-002   0.0000000000000000     
  0.25000000000000000        6.2500000000000000E-002   0.0000000000000000     
  0.12500000000000000        9.3750000000000000E-002   0.0000000000000000     
  0.15625000000000000        9.3750000000000000E-002   0.0000000000000000     
  0.18750000000000000        9.3750000000000000E-002   0.0000000000000000     
  0.21875000000000000        9.3750000000000000E-002   0.0000000000000000     
  0.25000000000000000        9.3750000000000000E-002   0.0000000000000000     
  0.12500000000000000       0.12500000000000000        0.0000000000000000     
  0.15625000000000000       0.12500000000000000        0.0000000000000000     
  0.18750000000000000       0.12500000000000000        0.0000000000000000     
  0.21875000000000000       0.12500000000000000        0.0000000000000000     
  0.25000000000000000       0.12500000000000000        0.0000000000000000     
  0.25000000000000000        0.0000000000000000        0.0000000000000000     
  0.28125000000000000        0.0000000000000000        0.0000000000000000     
  0.31250000000000000        0.0000000000000000        0.0000000000000000     
  0.34375000000000000        0.0000000000000000        0.0000000000000000     
  0.37500000000000000        0.0000000000000000        0.0000000000000000     
  0.25000000000000000        3.1250000000000000E-002   0.0000000000000000     
  0.28125000000000000        3.1250000000000000E-002   0.0000000000000000     
  0.31250000000000000        3.1250000000000000E-002   0.0000000000000000     
  0.34375000000000000        3.1250000000000000E-002   0.0000000000000000     
  0.37500000000000000        3.1250000000000000E-002   0.0000000000000000     
  0.25000000000000000        6.2500000000000000E-002   0.0000000000000000     
  0.28125000000000000        6.2500000000000000E-002   0.0000000000000000     
  0.31250000000000000        6.2500000000000000E-002   0.0000000000000000     
  0.34375000000000000        6.2500000000000000E-002   0.0000000000000000     
  0.37500000000000000        6.2500000000000000E-002   0.0000000000000000     
  0.25000000000000000        9.3750000000000000E-002   0.0000000000000000     
  0.28125000000000000        9.3750000000000000E-002   0.0000000000000000     
  0.31250000000000000        9.3750000000000000E-002   0.0000000000000000     
  0.34375000000000000        9.3750000000000000E-002   0.0000000000000000     
  0.37500000000000000        9.3750000000000000E-002   0.0000000000000000     
  0.25000000000000000       0.12500000000000000        0.0000000000000000     
  0.28125000000000000       0.12500000000000000        0.0000000000000000     
  0.31250000000000000       0.12500000000000000        0.0000000000000000     
  0.34375000000000000       0.12500000000000000        0.0000000000000000     
  0.37500000000000000       0.12500000000000000        0.0000000000000000     
  0.37500000000000000        0.0000000000000000        0.0000000000000000     
  0.40625000000000000        0.0000000000000000        0.0000000000000000     
  0.43750000000000000        0.0000000000000000        0.0000000000000000     
  0.46875000000000000        0.0000000000000000        0.0000000000000000     
  0.50000000000000000        0.0000000000000000        0.0000000000000000     
  0.37500000000000000        3.1250000000000000E-002   0.0000000000000000     
  0.40625000000000000        3.1250000000000000E-002   0.0000000000000000     
  0.43750000000000000        3.1250000000000000E-002   0.0000000000000000     
  0.46875000000000000        3.1250000000000000E-002   0.0000000000000000     
  0.50000000000000000        3.1250000000000000E-002   0.0000000000000000     
  0.37500000000000000        6.2500000000000000E-002   0.0000000000000000     
  0.40625000000000000        6.2500000000000000E-002   0.0000000000000000     
  0.43750000000000000        6.2500000000000000E-002   0.0000000000000000     
  0.46875000000000000        6.2500000000000000E-002   0.0000000000000000     
  0.50000000000000000        6.2500000000000000E-002   0.0000000000000000     
  0.37500000000000000        9.3750000000000000E-002   0.0000000000000000     
  0.40625000000000000        9.3750000000000000E-002   0.0000000000000000     
  0.43750000000000000        9.3750000000000000E-002   0.0000000000000000     
  0.46875000000000000        9.3750000000000000E-002   0.0000000000000000     
  0.50000000000000000        9.3750000000000000E-002   0.0000000000000000     
  0.37500000000000000       0.12500000000000000        0.0000000000000000     
  0.40625000000000000       0.12500000000000000        0.0000000000000000     
  0.43750000000000000       0.12500000000000000        0.0000000000000000     
  0.46875000000000000       0.12500000000000000        0.0000000000000000     
  0.50000000000000000       0.12500000000000000        0.0000000000000000     
  0.50000000000000000        0.0000000000000000        0.0000000000000000     
  0.53125000000000000        0.0000000000000000        0.0000000000000000     
  0.56250000000000000        0.0000000000000000        0.0000000000000000     
  0.59375000000000000        0.0000000000000000        0.0000000000000000     
  0.62500000000000000        0.0000000000000000        0.0000000000000000     
  0.50000000000000000        3.1250000000000000E-002   0.0000000000000000     
  0.53125000000000000        3.1250000000000000E-002   0.0000000000000000     
  0.56250000000000000        3.1250000000000000E-002   0.0000000000000000     
  0.59375000000000000        3.1250000000000000E-002   0.0000000000000000     
  0.62500000000000000        3.1250000000000000E-002   0.0000000000000000     
  0.50000000000000000        6.2500000000000000E-002   0.0000000000000000     
  0.53125000000000000        6.2500000000000000E-002   0.0000000000000000     
  0.56250000000000000        6.2500000000000000E-002   0.0000000000000000     
  0.59375000000000000        6.2500000000000000E-002   0.0000000000000000     
  0.62500000000000000        6.2500000000000000E-002   0.0000000000000000     
  0.50000000000000000        9.3750000000000000E-002   0.0000000000000000     
  0.53125000000000000        9.3750000000000000E-002   0.0000000000000000     
  0.56250000000000000        9.3750000000000000E-002   0.0000000000000000     
  0.59375000000000000        9.3750000000000000E-002   0.0000000000000000     
  0.62500000000000000        9.3750000000000000E-002   0.0000000000000000     
  0.50000000000000000       0.12500000000000000        0.0000000000000000     
  0.53125000000000000       0.12500000000000000        0.0000000000000000     
  0.56250000000000000       0.12500000000000000        0.0000000000000000     
[...]
 <PointData>
 <DataArray  type="Float64" Name="disp" NumberOfComponents="3" format="ascii">
   0.0000000000000000        0.0000000000000000        0.0000000000000000     
   6.0950111004779307E-003   3.7896430590690575E-003   0.0000000000000000     
   1.1665102326603788E-002   7.3206879036756684E-003   0.0000000000000000     
   1.6710273678377567E-002   1.0593134533819834E-002   0.0000000000000000     
   2.1230525155799269E-002   1.3606982949501552E-002   0.0000000000000000     
   0.0000000000000000        0.0000000000000000        0.0000000000000000     
   4.8911249661406746E-003   3.0199248775513183E-003   0.0000000000000000     
   9.5744895835575463E-003   6.0554931933750125E-003   0.0000000000000000     
   1.4050093852250613E-002   9.1067049474710827E-003   0.0000000000000000     
   1.8317937772219881E-002   1.2173560139839529E-002   0.0000000000000000     
   0.0000000000000000        0.0000000000000000        0.0000000000000000     
   3.9540871733299340E-003   2.4220401835471821E-003   0.0000000000000000     
   7.9123565896280709E-003   5.0568066293920251E-003   0.0000000000000000     
   1.1874808248894407E-002   7.9042993375345282E-003   0.0000000000000000     
   1.5841442151128947E-002   1.0964518307974694E-002   0.0000000000000000     
   0.0000000000000000        0.0000000000000000        0.0000000000000000     
   3.2838977220457123E-003   1.9959889770566489E-003   0.0000000000000000     
   6.6787033448153623E-003   4.3246282117267061E-003   0.0000000000000000     
   1.0184416868308946E-002   6.9859177040101717E-003   0.0000000000000000     
   1.3801038292526468E-002   9.9798574539070456E-003   0.0000000000000000     
   0.0000000000000000        0.0000000000000000        0.0000000000000000     
   2.8805566122880079E-003   1.7417712580797191E-003   0.0000000000000000     
   5.8735298491194177E-003   3.8589579403790564E-003   0.0000000000000000     
   8.9789197104942296E-003   6.3515600468980115E-003   0.0000000000000000     
   1.2196726196412443E-002   9.2195775776365840E-003   0.0000000000000000     
   2.1230525155799269E-002   1.3606982949501552E-002   0.0000000000000000     
   2.5438409157532912E-002   1.6593885545619122E-002   0.0000000000000000     
   2.9546478082242512E-002   1.9785494717070848E-002   0.0000000000000000     
   3.3554731929928062E-002   2.3181810463856721E-002   0.0000000000000000     
   3.7463170700589576E-002   2.6782832785976748E-002   0.0000000000000000     
   1.8317937772219881E-002   1.2173560139839529E-002   0.0000000000000000     
   2.2415687173048982E-002   1.5324077727598572E-002   0.0000000000000000     
   2.6381007884321565E-002   1.8626276667866426E-002   0.0000000000000000     
   3.0213899906037629E-002   2.2080156960643096E-002   0.0000000000000000     
   3.3914363238197159E-002   2.5685718605928585E-002   0.0000000000000000     
   1.5841442151128947E-002   1.0964518307974694E-002   0.0000000000000000     
   1.9739817394125631E-002   1.4195110968978297E-002   0.0000000000000000     
   2.3497493075678413E-002   1.7553724748811117E-002   0.0000000000000000     
   2.7114469195787277E-002   2.1040359647473153E-002   0.0000000000000000     
   3.0590745754452239E-002   2.4655015664964412E-002   0.0000000000000000     
   1.3801038292526468E-002   9.9798574539070456E-003   0.0000000000000000     
   1.7410799820762855E-002   1.3206985269758303E-002   0.0000000000000000     
   2.0895933656313041E-002   1.6567838959904921E-002   0.0000000000000000     
   2.4256439799177024E-002   2.0062418524346898E-002   0.0000000000000000     
   2.7492318249354809E-002   2.3690723963084234E-002   0.0000000000000000     
   1.2196726196412443E-002   9.2195775776365840E-003   0.0000000000000000     
   1.5428634452960655E-002   1.2359700629938589E-002   0.0000000000000000     
   1.8576329626225466E-002   1.5668619301147831E-002   0.0000000000000000     
   2.1639811716206870E-002   1.9146333591264320E-002   0.0000000000000000     
   2.4619080722904873E-002   2.2792843500288047E-002   0.0000000000000000     
   3.7463170700589576E-002   2.6782832785976748E-002   0.0000000000000000     
   4.1284107966083013E-002   3.0584162545625442E-002   0.0000000000000000     
   4.5029857298264371E-002   3.4581400604997335E-002   0.0000000000000000     
   4.8700418697133645E-002   3.8774546964092417E-002   0.0000000000000000     
   5.2295792162690827E-002   4.3163601622910691E-002   0.0000000000000000     
   3.3914363238197159E-002   2.5685718605928585E-002   0.0000000000000000     
   3.7512339244512957E-002   2.9473579594780853E-002   0.0000000000000000     
   4.1037769288697803E-002   3.3474357918257876E-002   0.0000000000000000     
   4.4490653370751691E-002   3.7688053576359647E-002   0.0000000000000000     
   4.7870991490674628E-002   4.2114666569086176E-002   0.0000000000000000     
   3.0590745754452239E-002   2.4655015664964412E-002   0.0000000000000000     
   3.3960708709941376E-002   2.8445153686164886E-002   0.0000000000000000     
   3.7258744020522767E-002   3.2458234595954587E-002   0.0000000000000000     
   4.0484851686196401E-002   3.6694258394333511E-002   0.0000000000000000     
   4.3639031706962310E-002   4.1153225081301655E-002   0.0000000000000000     
   2.7492318249354809E-002   2.3690723963084234E-002   0.0000000000000000     
   3.0629216362368261E-002   2.7498884819777553E-002   0.0000000000000000     
   3.3692781493739256E-002   3.1533030638087475E-002   0.0000000000000000     
   3.6683013643467786E-002   3.5793161418014002E-002   0.0000000000000000     
   3.9599912811553860E-002   4.0279277159557141E-002   0.0000000000000000     
   2.4619080722904873E-002   2.2792843500288047E-002   0.0000000000000000     
   2.7517862201793624E-002   2.6634772995618838E-002   0.0000000000000000     
   3.0339881708347283E-002   3.0698746044656527E-002   0.0000000000000000     
   3.3085139242565842E-002   3.4984762647401114E-002   0.0000000000000000     
   3.5753634804449305E-002   3.9492822803852606E-002   0.0000000000000000     
   5.2295792162690827E-002   4.3163601622910691E-002   0.0000000000000000     
   5.5798684186756320E-002   4.7761721357253407E-002   0.0000000000000000     
   5.9191801261150513E-002   5.2582062942921823E-002   0.0000000000000000     
   6.2475143385873413E-002   5.7624626379915951E-002   0.0000000000000000     
   6.5648710560925014E-002   6.2889411668235778E-002   0.0000000000000000     
   4.7870991490674628E-002   4.2114666569086176E-002   0.0000000000000000     
   5.1162018433670839E-002   4.6753859010338801E-002   0.0000000000000000     
   5.4346968984944552E-002   5.1605293014018887E-002   0.0000000000000000     
   5.7425843144495760E-002   5.6668968580126426E-002   0.0000000000000000     
   6.0398640912324469E-002   6.1944885708661399E-002   0.0000000000000000     
   4.3639031706962310E-002   4.1153225081301655E-002   0.0000000000000000     
   4.6705984584634333E-002   4.5825976924198056E-002   0.0000000000000000     
   4.9670410821026384E-002   5.0703356190361724E-002   0.0000000000000000     
   5.2532310416138456E-002   5.5785362879792667E-002   0.0000000000000000     
   5.5291683369970521E-002   6.1071996992490871E-002   0.0000000000000000     
   3.9599912811553860E-002   4.0279277159557141E-002   0.0000000000000000     
   4.2430582639646837E-002   4.4978075098831144E-002   0.0000000000000000     
   4.5162126769396030E-002   4.9876252471950336E-002   0.0000000000000000     
   4.7794545200801480E-002   5.4973809278914661E-002   0.0000000000000000     
   5.0327837933863154E-002   6.0270745519724174E-002   0.0000000000000000     
   3.5753634804449305E-002   3.9492822803852606E-002   0.0000000000000000     
   3.8335812598708309E-002   4.4210153534238100E-002   0.0000000000000000     
   4.0822116830053490E-002   4.9123981858784714E-002   0.0000000000000000     
   4.3212547498484848E-002   5.4234307777492448E-002   0.0000000000000000     
   4.5507104604002376E-002   5.9541131290361315E-002   0.0000000000000000     
   6.5648710560925014E-002   6.2889411668235778E-002   0.0000000000000000     
   6.8764341419071770E-002   6.8364461307206137E-002   0.0000000000000000     
   7.1873874593080173E-002   7.4037817796151872E-002   0.0000000000000000     
   7.4977310082950208E-002   7.9909481135072999E-002   0.0000000000000000     
   7.8074647888681875E-002   8.5979451323969502E-002   0.0000000000000000     
   6.0398640912324469E-002   6.1944885708661399E-002   0.0000000000000000     
   6.3317924097355940E-002   6.7425383291820601E-002   0.0000000000000000     
   6.6236254508515433E-002   7.3102800221800782E-002   0.0000000000000000     
   6.9153632145802932E-002   7.8977136498601955E-002   0.0000000000000000     
   7.2070057009218452E-002   8.5048392122224092E-002   0.0000000000000000     
   5.5291683369970521E-002   6.1071996992490871E-002   0.0000000000000000     
   5.7999349084117871E-002   6.6559882901305281E-002   0.0000000000000000     
   6.0706126960175751E-002   7.2245644979084783E-002   0.0000000000000000     
   6.3412016998144180E-002   7.8129283225829405E-002   0.0000000000000000     
   6.6117019198023125E-002   8.4210797641539159E-002   0.0000000000000000     
   5.0327837933863154E-002   6.0270745519724174E-002   0.0000000000000000     
   5.2808616379357548E-002   6.5767960135660150E-002   0.0000000000000000     
   5.5283491948061161E-002   7.1466352068003891E-002   0.0000000000000000     
   5.7752464639973938E-002   7.7365921316755404E-002   0.0000000000000000     
   6.0215534455095934E-002   8.3466667881914702E-002   0.0000000000000000     
   4.5507104604002376E-002   5.9541131290361315E-002   0.0000000000000000     
   4.7745725983074985E-002   6.5049614994885221E-002   0.0000000000000000     
   4.9968349472171603E-002   7.0764921488558091E-002   0.0000000000000000     
   5.2174975071292234E-002   7.6687050771379897E-002   0.0000000000000000     
   5.4365602780436853E-002   8.2816002843350722E-002   0.0000000000000000     
   7.8074647888681875E-002   8.5979451323969502E-002   0.0000000000000000     
   8.1092788773730731E-002   9.2210947412238994E-002   0.0000000000000000     
   8.3958633501552374E-002   9.8567188449279128E-002   0.0000000000000000     
   8.6672182072146761E-002  0.10504817443508986        0.0000000000000000     
   8.9233434485513921E-002  0.11165390536967124        0.0000000000000000     
   7.2070057009218452E-002   8.5048392122224092E-002   0.0000000000000000     
   7.4917469380168467E-002   9.1292726771519422E-002   0.0000000000000000     
   7.7627809540059475E-002   9.7686300125340159E-002   0.0000000000000000     
   8.0201077488891506E-002  0.10422911218368630        0.0000000000000000     
   8.2637273226664532E-002  0.11092116294655782        0.0000000000000000     
   6.6117019198023125E-002   8.4210797641539159E-002   0.0000000000000000     
   6.8759234021147142E-002   9.0473451440751002E-002   0.0000000000000000     
   7.1276761928850699E-002   9.6900507838001956E-002   0.0000000000000000     
   7.3669602921133809E-002  0.10349196683329201        0.0000000000000000     
   7.5937756997996500E-002  0.11024782842662117        0.0000000000000000     
   6.0215534455095934E-002   8.3466667881914702E-002   0.0000000000000000     
   6.2618082696666744E-002   8.9753121419933732E-002   0.0000000000000000     
   6.4905490667925989E-002   9.6209811587264535E-002   0.0000000000000000     
   6.7077758368873669E-002  0.10283673838390703        0.0000000000000000     
   6.9134885799509785E-002  0.10963390180986127        0.0000000000000000     
   5.4365602780436853E-002   8.2816002843350722E-002   0.0000000000000000     
   5.6494015406727285E-002   8.9131736709067627E-002   0.0000000000000000     
   5.8513995757285366E-002   9.5614211373127825E-002   0.0000000000000000     
   6.0425543832111073E-002  0.10226342683553134        0.0000000000000000     
   6.2228659631204414E-002  0.10907938309627813        0.0000000000000000     
   8.9233434485513921E-002  0.11165390536967124        0.0000000000000000     
   9.1607495163264274E-002  0.11839103354581106        0.0000000000000000     
   9.3759468527008213E-002  0.12526621125629714        0.0000000000000000     
   9.5689354576745753E-002  0.13227943850112953        0.0000000000000000     
   9.7397153312476892E-002  0.13943071528030820        0.0000000000000000     
   8.2637273226664532E-002  0.11092116294655782        0.0000000000000000     
   8.4881615380413847E-002  0.11774140940045121        0.0000000000000000     
   8.6879322577174706E-002  0.12466880853186287        0.0000000000000000     
   8.8630394816947150E-002  0.13170336034079286        0.0000000000000000     
   9.0134832099731124E-002  0.13884506482724113        0.0000000000000000     
   7.5937756997996500E-002  0.11024782842662117        0.0000000000000000     
   7.8019384008206891E-002  0.11712788046711958        0.0000000000000000     
   7.9852643800533155E-002  0.12409191080391740        0.0000000000000000     
   8.1437536374975292E-002  0.13113991943701458        0.0000000000000000     
   8.2774061731533302E-002  0.13827190636641118        0.0000000000000000     
   6.9134885799509785E-002  0.10963390180986127        0.0000000000000000     
   7.1020801046643392E-002  0.11655044674581619        0.0000000000000000     
   7.2679432197083546E-002  0.12353551807246067        0.0000000000000000     
   7.4110779250830219E-002  0.13058911578979476        0.0000000000000000     
   7.5314842207883440E-002  0.13771123989781844        0.0000000000000000     
   6.2228659631204414E-002  0.10907938309627813        0.0000000000000000     
   6.3885866495723365E-002  0.11600910823654104        0.0000000000000000     
   6.5359687766825866E-002  0.12299963033749277        0.0000000000000000     
   6.6650123444511905E-002  0.13005094939913336        0.0000000000000000     
   6.7757173528781522E-002  0.13716306542146284        0.0000000000000000     
   9.7397153312476892E-002  0.13943071528030820        0.0000000000000000     
   9.9145842988923663E-002  0.14681127610130273        0.0000000000000000     
  0.10119840186080811       0.15451235547158268        0.0000000000000000     
  0.10355482992813023       0.16253395339114809        0.0000000000000000     
  0.10621512719089002       0.17087606985999890        0.0000000000000000     
   9.0134832099731124E-002  0.13884506482724113        0.0000000000000000     
   9.1746824572475572E-002  0.14620100470984052        0.0000000000000000     
   9.3820562382129394E-002  0.15387826270722371        0.0000000000000000     
   9.6356045528692605E-002  0.16187683881939091        0.0000000000000000     
   9.9353274012165205E-002  0.17019673304634192        0.0000000000000000     
   8.2774061731533302E-002  0.13827190636641118        0.0000000000000000     
   8.4228785992353866E-002  0.14560224784825976        0.0000000000000000     
   8.6168275279583650E-002  0.15324532013871275        0.0000000000000000     
   8.8592529593222683E-002  0.16120112323777028        0.0000000000000000     
   9.1501548933270949E-002  0.16946965714543227        0.0000000000000000     
   7.5314842207883440E-002  0.13771123989781844        0.0000000000000000     
   7.6591727248558533E-002  0.14501500551656052        0.0000000000000000     
   7.8241540553170882E-002  0.15261352776604975        0.0000000000000000     
   8.0264282121720446E-002  0.16050680664628622        0.0000000000000000     
   8.2659951954207250E-002  0.16869484215726990        0.0000000000000000     
   6.7757173528781522E-002  0.13716306542146284        0.0000000000000000     
   6.8835648341089614E-002  0.14443927771474274        0.0000000000000000     
   7.0040358202891062E-002  0.15198288558923473        0.0000000000000000     
   7.1371303114185908E-002  0.15979388904493880        0.0000000000000000     
   7.2828483074974137E-002  0.16787228808185489        0.0000000000000000     
   0.0000000000000000        0.0000000000000000        0.0000000000000000     
   2.8805566122880079E-003   1.7417712580797191E-003   0.0000000000000000     
   5.8735298491194177E-003   3.8589579403790564E-003   0.0000000000000000     
   8.9789197104942296E-003   6.3515600468980115E-003   0.0000000000000000     
   1.2196726196412443E-002   9.2195775776365840E-003   0.0000000000000000     
   0.0000000000000000        0.0000000000000000        0.0000000000000000     
   2.6104320500719572E-003   1.5864530504438007E-003   0.0000000000000000     
   5.2894492951067974E-003   3.5521253523262148E-003   0.0000000000000000     
   8.0370517351045206E-003   5.8970169056472427E-003   0.0000000000000000     
   1.0853239370065128E-002   8.6211277104068854E-003   0.0000000000000000     
   0.0000000000000000        0.0000000000000000        0.0000000000000000     
   2.3398922414126968E-003   1.4571003779763009E-003   0.0000000000000000     
   4.7190748753440578E-003   3.2964599845453214E-003   0.0000000000000000     
   7.1375479017940823E-003   5.5180788197070610E-003   0.0000000000000000     
   9.5953113207627710E-003   8.1219568834615188E-003   0.0000000000000000     
   0.0000000000000000        0.0000000000000000        0.0000000000000000     
   2.0689371863102275E-003   1.3537132406772207E-003   0.0000000000000000     
   4.1624065898311991E-003   3.0919618370363763E-003   0.0000000000000000     
   6.2804082105629155E-003   5.2147457890774655E-003   0.0000000000000000     
   8.4229420485053743E-003   7.7220650968004888E-003   0.0000000000000000     
   0.0000000000000000        0.0000000000000000        0.0000000000000000     
   1.7975668847645483E-003   1.2762916385465600E-003   0.0000000000000000     
   3.6194444385682211E-003   2.9386309097993784E-003   0.0000000000000000     
   5.4656326614110178E-003   4.9870178137584563E-003   0.0000000000000000     
   7.3361315532929402E-003   7.4214523504237927E-003   0.0000000000000000     
   1.2196726196412443E-002   9.2195775776365840E-003   0.0000000000000000     
   1.5428634452960655E-002   1.2359700629938589E-002   0.0000000000000000     
   1.8576329626225466E-002   1.5668619301147831E-002   0.0000000000000000     
   2.1639811716206870E-002   1.9146333591264320E-002   0.0000000000000000     
   2.4619080722904873E-002   2.2792843500288047E-002   0.0000000000000000     
   1.0853239370065128E-002   8.6211277104068854E-003   0.0000000000000000     
   1.3684199139931590E-002   1.1641392461074840E-002   0.0000000000000000     
   1.6476117984646883E-002   1.4874745852120806E-002   0.0000000000000000     
   1.9228995904211014E-002   1.8321187883544785E-002   0.0000000000000000     
   2.1942832898623966E-002   2.1980718555346779E-002   0.0000000000000000     
   9.5953113207627710E-003   8.1219568834615188E-003   0.0000000000000000     
   1.2068371730888214E-002   1.1040196174722751E-002   0.0000000000000000     
   1.4532735730808504E-002   1.4204898692404801E-002   0.0000000000000000     
   1.6988403320523645E-002   1.7616064436507671E-002   0.0000000000000000     
   1.9435374500033631E-002   2.1273693407031363E-002   0.0000000000000000     
   8.4229420485053743E-003   7.7220650968004888E-003   0.0000000000000000     
   1.0581152225830530E-002   1.0556111770882315E-002   0.0000000000000000     
   1.2746182864710331E-002   1.3659077821999809E-002   0.0000000000000000     
   1.4918033965144770E-002   1.7030963250152964E-002   0.0000000000000000     
   1.7096705527133861E-002   2.0671768055341794E-002   0.0000000000000000     
   7.3361315532929402E-003   7.4214523504237927E-003   0.0000000000000000     
   9.2225406247585344E-003   1.0189139249553534E-002   0.0000000000000000     
   1.1116459386352353E-002   1.3237283240905831E-002   0.0000000000000000     
   1.3017887838074393E-002   1.6565884324480681E-002   0.0000000000000000     
   1.4926825979924657E-002   2.0174942500278077E-002   0.0000000000000000     
   2.4619080722904873E-002   2.2792843500288047E-002   0.0000000000000000     
   2.7517862201793624E-002   2.6634772995618838E-002   0.0000000000000000     