 <VTKFile type="UnstructuredGrid"  version="0.1"   >
 <UnstructuredGrid>
 <Piece  NumberOfPoints="           100 "  NumberOfCells="           64 ">
 <Points>
 <DataArray  type="Float64" NumberOfComponents="3"  format="ascii" >
   0.0000000000000000        0.0000000000000000        0.0000000000000000     
  0.12500000000000000        0.0000000000000000        0.0000000000000000     
  0.25000000000000000        0.0000000000000000        0.0000000000000000     
  0.37500000000000000        0.0000000000000000        0.0000000000000000     
  0.50000000000000000        0.0000000000000000        0.0000000000000000     
   0.0000000000000000       0.12500000000000000        0.0000000000000000     
  0.12500000000000000       0.12500000000000000        0.0000000000000000     
  0.25000000000000000       0.12500000000000000        0.0000000000000000     
  0.37500000000000000       0.12500000000000000        0.0000000000000000     
  0.50000000000000000       0.12500000000000000        0.0000000000000000     
   0.0000000000000000       0.25000000000000000        0.0000000000000000     
  0.12500000000000000       0.25000000000000000        0.0000000000000000     
  0.25000000000000000       0.25000000000000000        0.0000000000000000     
  0.37500000000000000       0.25000000000000000        0.0000000000000000     
  0.50000000000000000       0.25000000000000000        0.0000000000000000     
   0.0000000000000000       0.37500000000000000        0.0000000000000000     
  0.12500000000000000       0.37500000000000000        0.0000000000000000     
  0.25000000000000000       0.37500000000000000        0.0000000000000000     
  0.37500000000000000       0.37500000000000000        0.0000000000000000     
  0.50000000000000000       0.37500000000000000        0.0000000000000000     
   0.0000000000000000       0.50000000000000000        0.0000000000000000     
  0.12500000000000000       0.50000000000000000        0.0000000000000000     
  0.25000000000000000       0.50000000000000000        0.0000000000000000     
  0.37500000000000000       0.50000000000000000        0.0000000000000000     
  0.50000000000000000       0.50000000000000000        0.0000000000000000     
  0.50000000000000000        0.0000000000000000        0.0000000000000000     
  0.62500000000000000        0.0000000000000000        0.0000000000000000     
  0.75000000000000000        0.0000000000000000        0.0000000000000000     
  0.87500000000000000        0.0000000000000000        0.0000000000000000     
   1.0000000000000000        0.0000000000000000        0.0000000000000000     
  0.50000000000000000       0.12500000000000000        0.0000000000000000     
  0.62500000000000000       0.12500000000000000        0.0000000000000000     
  0.75000000000000000       0.12500000000000000        0.0000000000000000     
  0.87500000000000000       0.12500000000000000        0.0000000000000000     
   1.0000000000000000       0.12500000000000000        0.0000000000000000     
  0.50000000000000000       0.25000000000000000        0.0000000000000000     
  0.62500000000000000       0.25000000000000000        0.0000000000000000     
  0.75000000000000000       0.25000000000000000        0.0000000000000000     
  0.87500000000000000       0.25000000000000000        0.0000000000000000     
   1.0000000000000000       0.25000000000000000        0.0000000000000000     
  0.50000000000000000       0.37500000000000000        0.0000000000000000     
  0.62500000000000000       0.37500000000000000        0.0000000000000000     
  0.75000000000000000       0.37500000000000000        0.0000000000000000     
  0.87500000000000000       0.37500000000000000        0.0000000000000000     
   1.0000000000000000       0.37500000000000000        0.0000000000000000     
  0.50000000000000000       0.50000000000000000        0.0000000000000000     
  0.62500000000000000       0.50000000000000000        0.0000000000000000     
  0.75000000000000000       0.50000000000000000        0.0000000000000000     
  0.87500000000000000       0.50000000000000000        0.0000000000000000     
   1.0000000000000000       0.50000000000000000        0.0000000000000000     
   0.0000000000000000       0.50000000000000000        0.0000000000000000     
  0.12500000000000000       0.50000000000000000        0.0000000000000000     
  0.25000000000000000       0.50000000000000000        0.0000000000000000     
  0.37500000000000000       0.50000000000000000        0.0000000000000000     
  0.50000000000000000       0.50000000000000000        0.0000000000000000     
   0.0000000000000000       0.62500000000000000        0.0000000000000000     
  0.12500000000000000       0.62500000000000000        0.0000000000000000     
  0.25000000000000000       0.62500000000000000        0.0000000000000000     
  0.37500000000000000       0.62500000000000000        0.0000000000000000     
  0.50000000000000000       0.62500000000000000        0.0000000000000000     
   0.0000000000000000       0.75000000000000000        0.0000000000000000     
  0.12500000000000000       0.75000000000000000        0.0000000000000000     
  0.25000000000000000       0.75000000000000000        0.0000000000000000     
  0.37500000000000000       0.75000000000000000        0.0000000000000000     
  0.50000000000000000       0.75000000000000000        0.0000000000000000     
   0.0000000000000000       0.87500000000000000        0.0000000000000000     
  0.12500000000000000       0.87500000000000000        0.0000000000000000     
  0.25000000000000000       0.87500000000000000        0.0000000000000000     
  0.37500000000000000       0.87500000000000000        0.0000000000000000     
  0.50000000000000000       0.87500000000000000        0.0000000000000000     
   0.0000000000000000        1.0000000000000000        0.0000000000000000     
  0.12500000000000000        1.0000000000000000        0.0000000000000000     
  0.25000000000000000        1.0000000000000000        0.0000000000000000     
  0.37500000000000000        1.0000000000000000        0.0000000000000000     
  0.50000000000000000        1.0000000000000000        0.0000000000000000     
  0.50000000000000000       0.50000000000000000        0.0000000000000000     
  0.62500000000000000       0.50000000000000000        0.0000000000000000     
  0.75000000000000000       0.50000000000000000        0.0000000000000000     
  0.87500000000000000       0.50000000000000000        0.0000000000000000     
   1.0000000000000000       0.50000000000000000        0.0000000000000000     
  0.50000000000000000       0.62500000000000000        0.0000000000000000     
  0.62500000000000000       0.62500000000000000        0.0000000000000000     
  0.75000000000000000       0.62500000000000000        0.0000000000000000     
  0.87500000000000000       0.62500000000000000        0.0000000000000000     
   1.0000000000000000       0.62500000000000000        0.0000000000000000     
  0.50000000000000000       0.75000000000000000        0.0000000000000000     
  0.62500000000000000       0.75000000000000000        0.0000000000000000     
  0.75000000000000000       0.75000000000000000        0.0000000000000000     
  0.87500000000000000       0.75000000000000000        0.0000000000000000     
   1.0000000000000000       0.75000000000000000        0.0000000000000000     
  0.50000000000000000       0.87500000000000000        0.0000000000000000     
  0.62500000000000000       0.87500000000000000        0.0000000000000000     
  0.75000000000000000       0.87500000000000000        0.0000000000000000     
  0.87500000000000000       0.87500000000000000        0.0000000000000000     
   1.0000000000000000       0.87500000000000000        0.0000000000000000     
  0.50000000000000000        1.0000000000000000        0.0000000000000000     
  0.62500000000000000        1.0000000000000000        0.0000000000000000     
  0.75000000000000000        1.0000000000000000        0.0000000000000000     
  0.87500000000000000        1.0000000000000000        0.0000000000000000     
   1.0000000000000000        1.0000000000000000        0.0000000000000000     
 </DataArray>
 </Points>
 <Cells>
 <DataArray  type="Int32"  Name="connectivity"  format="ascii">
           0           1           6           5
           1           2           7           6
           2           3           8           7
           3           4           9           8
           5           6          11          10
           6           7          12          11
           7           8          13          12
           8           9          14          13
          10          11          16          15
          11          12          17          16
          12          13          18          17
          13          14          19          18
          15          16          21          20
          16          17          22          21
          17          18          23          22
          18          19          24          23
          25          26          31          30
          26          27          32          31
          27          28          33          32
          28          29          34          33
          30          31          36          35
          31          32          37          36
          32          33          38          37
          33          34          39          38
          35          36          41          40
          36          37          42          41
          37          38          43          42
          38          39          44          43
          40          41          46          45
          41          42          47          46
          42          43          48          47
          43          44          49          48
          50          51          56          55
          51          52          57          56
          52          53          58          57
          53          54          59          58
          55          56          61          60
          56          57          62          61
          57          58          63          62
          58          59          64          63
          60          61          66          65
          61          62          67          66
          62          63          68          67
          63          64          69          68
          65          66          71          70
          66          67          72          71
          67          68          73          72
          68          69          74          73
          75          76          81          80
          76          77          82          81
          77          78          83          82
          78          79          84          83
          80          81          86          85
          81          82          87          86
          82          83          88          87
          83          84          89          88
          85          86          91          90
          86          87          92          91
          87          88          93          92
          88          89          94          93
          90          91          96          95
          91          92          97          96
          92          93          98          97
          93          94          99          98
 </DataArray>
 <DataArray  type="Int32"  Name="offsets"  format="ascii"> 
           4
           8
          12
          16
          20
          24
          28
          32
          36
          40
          44
          48
          52
          56
          60
          64
          68
          72
          76
          80
          84
          88
          92
          96
         100
         104
         108
         112
         116
         120
         124
         128
         132
         136
         140
         144
         148
         152
         156
         160
         164
         168
         172
         176
         180
         184
         188
         192
         196
         200
         204
         208
         212
         216
         220
         224
         228
         232
         236
         240
         244
         248
         252
         256
 </DataArray>
 <DataArray  type="UInt8"  Name="types"  format="ascii">
 9
 9
 9
 9
 9
 9
 9
 9
 9
 9
 9
 9
 9
 9
 9
 9
 9
 9
 9
 9
 9
 9
 9
 9
 9
 9
 9
 9
 9
 9
 9
 9
 9
 9
 9
 9
 9
 9
 9
 9
 9
 9
 9
 9
 9
 9
 9
 9
 9
 9
 9
 9
 9
 9
 9
 9
 9
 9
 9
 9
 9
 9
 9
 9
 </DataArray>
 </Cells> 
 <PointData>
 <DataArray  type="Float64" Name="disp" NumberOfComponents="3" format="ascii">
   0.0000000000000000        0.0000000000000000        0.0000000000000000     
   1.9084757247072249E-002   1.1664815096459977E-002   0.0000000000000000     
   3.6137932136116699E-002   2.5841289785098046E-002   0.0000000000000000     
   5.1159524667133353E-002   4.2529424065914201E-002   0.0000000000000000     
   6.4149534840122202E-002   6.1729217938908440E-002   0.0000000000000000     
   0.0000000000000000        0.0000000000000000        0.0000000000000000     
   1.2688030721157560E-002   9.3309253537754693E-003   0.0000000000000000     
   2.4537489835058567E-002   2.2148588087985598E-002   0.0000000000000000     
   3.5548377341703026E-002   3.8452988202630385E-002   0.0000000000000000     
   4.5720693241090932E-002   5.8244125697709835E-002   0.0000000000000000     
   0.0000000000000000        0.0000000000000000        0.0000000000000000     
   7.3749956713398627E-003   7.6638612518588421E-003   0.0000000000000000     
   1.4647687045351552E-002   1.9510944018620118E-002   0.0000000000000000     
   2.1818074122035069E-002   3.5541248300283837E-002   0.0000000000000000     
   2.8886156901390420E-002   5.5754774096849979E-002   0.0000000000000000     
   0.0000000000000000        0.0000000000000000        0.0000000000000000     
   3.1456520976191542E-003   6.6636227907100947E-003   0.0000000000000000     
   6.4685237669956505E-003   1.7928357577001605E-002   0.0000000000000000     
   9.9686150081294885E-003   3.3794204358874529E-002   0.0000000000000000     
   1.3645925821020671E-002   5.4261163136328859E-002   0.0000000000000000     
   0.0000000000000000        0.0000000000000000        0.0000000000000000     
  -4.5621059013845056E-015   6.3302099703292283E-003   0.0000000000000000     
  -9.1359211862318546E-015   1.7400828763130052E-002   0.0000000000000000     
  -1.3721662694976544E-014   3.3211856378402474E-002   0.0000000000000000     
  -1.8318246225446089E-014   5.3763292816146495E-002   0.0000000000000000     
   6.4149534840122202E-002   6.1729217938908440E-002   0.0000000000000000     
   7.5337482823060353E-002   8.3672141136265213E-002   0.0000000000000000     
   8.4952888783924901E-002  0.10858966339016894        0.0000000000000000     
   9.2995752722715819E-002  0.13648178470061964        0.0000000000000000     
   9.9466074639433133E-002  0.16734850506761728        0.0000000000000000     
   4.5720693241090932E-002   5.8244125697709835E-002   0.0000000000000000     
   5.4750582136727267E-002   8.1066113162006528E-002   0.0000000000000000     
   6.2334188632117017E-002  0.10646306318430303        0.0000000000000000     
   6.8471512727260181E-002  0.13443497576459937        0.0000000000000000     
   7.3162554422156745E-002  0.16498185090289549        0.0000000000000000     
   2.8886156901390420E-002   5.5754774096849979E-002   0.0000000000000000     
   3.5332034770769620E-002   7.9204664608956740E-002   0.0000000000000000     
   4.0635807117524680E-002  0.10494406303724230        0.0000000000000000     
   4.4797473941655605E-002  0.13297296938170663        0.0000000000000000     
   4.7817035243162401E-002  0.16329138364234974        0.0000000000000000     
   1.3645925821020671E-002   5.4261163136328859E-002   0.0000000000000000     
   1.7081840725187394E-002   7.8087795477115862E-002   0.0000000000000000     
   1.9857744240147874E-002  0.10403266294898671        0.0000000000000000     
   2.1973636365902105E-002  0.13209576555194141        0.0000000000000000     
   2.3429517102450087E-002  0.16227710328598000        0.0000000000000000     
  -1.8318246225446089E-014   5.3763292816146495E-002   0.0000000000000000     
  -1.9387703248385790E-014   7.7715505766483839E-002   0.0000000000000000     
  -1.3389354729109737E-014  0.10372886291953626        0.0000000000000000     
  -3.2154725930488848E-016  0.13180336427530373        0.0000000000000000     
   1.9807072648703183E-014  0.16193900983378628        0.0000000000000000     
   0.0000000000000000        0.0000000000000000        0.0000000000000000     
  -4.5621059013845056E-015   6.3302099703292283E-003   0.0000000000000000     
  -9.1359211862318546E-015   1.7400828763130052E-002   0.0000000000000000     
  -1.3721662694976544E-014   3.3211856378402474E-002   0.0000000000000000     
  -1.8318246225446089E-014   5.3763292816146495E-002   0.0000000000000000     
   0.0000000000000000        0.0000000000000000        0.0000000000000000     
  -3.1456520976267570E-003   6.6636227907151983E-003   0.0000000000000000     
  -6.4685237670106307E-003   1.7928357577004436E-002   0.0000000000000000     
  -9.9686150081516184E-003   3.3794204358867708E-002   0.0000000000000000     
  -1.3645925821049724E-002   5.4261163136305024E-002   0.0000000000000000     
   0.0000000000000000        0.0000000000000000        0.0000000000000000     
  -7.3749956713429002E-003   7.6638612518669571E-003   0.0000000000000000     
  -1.4647687045356655E-002   1.9510944018623709E-002   0.0000000000000000     
  -2.1818074122041259E-002   3.5541248300270264E-002   0.0000000000000000     
  -2.8886156901396721E-002   5.5754774096806604E-002   0.0000000000000000     
   0.0000000000000000        0.0000000000000000        0.0000000000000000     
  -1.2688030721152991E-002   9.3309253537845090E-003   0.0000000000000000     
  -2.4537489835047204E-002   2.2148588087987885E-002   0.0000000000000000     
  -3.5548377341682647E-002   3.8452988202610124E-002   0.0000000000000000     
  -4.5720693241059311E-002   5.8244125697651243E-002   0.0000000000000000     
   0.0000000000000000        0.0000000000000000        0.0000000000000000     
  -1.9084757247057028E-002   1.1664815096467850E-002   0.0000000000000000     
  -3.6137932136082289E-002   2.5841289785096953E-002   0.0000000000000000     
  -5.1159524667075774E-002   4.2529424065887306E-002   0.0000000000000000     
  -6.4149534840037492E-002   6.1729217938838919E-002   0.0000000000000000     
  -1.8318246225446089E-014   5.3763292816146495E-002   0.0000000000000000     
  -1.9387703248385790E-014   7.7715505766483839E-002   0.0000000000000000     
  -1.3389354729109737E-014  0.10372886291953626        0.0000000000000000     
  -3.2154725930488848E-016  0.13180336427530373        0.0000000000000000     
   1.9807072648703183E-014  0.16193900983378628        0.0000000000000000     
  -1.3645925821049724E-002   5.4261163136305024E-002   0.0000000000000000     
  -1.7081840725216669E-002   7.8087795477066180E-002   0.0000000000000000     
  -1.9857744240164212E-002  0.10403266294890098        0.0000000000000000     
  -2.1973636365892325E-002  0.13209576555180938        0.0000000000000000     
  -2.3429517102401015E-002  0.16227710328579148        0.0000000000000000     
  -2.8886156901396721E-002   5.5754774096806604E-002   0.0000000000000000     
  -3.5332034770770397E-002   7.9204664608868297E-002   0.0000000000000000     
  -4.0635807117509665E-002  0.10494406303709083        0.0000000000000000     
  -4.4797473941614520E-002  0.13297296938147429        0.0000000000000000     
  -4.7817035243084963E-002  0.16329138364201859        0.0000000000000000     
  -4.5720693241059311E-002   5.8244125697651243E-002   0.0000000000000000     
  -5.4750582136680541E-002   8.1066113161890149E-002   0.0000000000000000     
  -6.2334188632049738E-002  0.10646306318410585        0.0000000000000000     
  -6.8471512727166908E-002  0.13443497576429828        0.0000000000000000     
  -7.3162554422032039E-002  0.16498185090246753        0.0000000000000000     
  -6.4149534840037492E-002   6.1729217938838919E-002   0.0000000000000000     
  -7.5337482822947152E-002   8.3672141136131820E-002   0.0000000000000000     
  -8.4952888783784500E-002  0.10858966338994600        0.0000000000000000     
  -9.2995752722549549E-002  0.13648178470028149        0.0000000000000000     
  -9.9466074639242244E-002  0.16734850506713833        0.0000000000000000     
 </DataArray>
 <DataArray  type="Float64" Name="stress" NumberOfComponents="3" format="ascii">
   10602487081.891594        3180746124.5674782        1921658824.6838646     
   9108804553.3913746        1452336135.7445571        1104382639.1235390     
   7791462623.3326273        311728141.72654247        549515525.16801620     
   6650461291.7153530       -241077857.48656273        257057482.81729558     
   5685800558.5395508       -206081861.89476204        227008512.07137820     
   6913749375.7112103        2074124812.7133632        1400779691.7338104     
   6154866905.0579939        886231148.81312525        963583985.74645019     
   5528239883.2357149        139188981.01601243        704475485.36213326     
   5033868310.2443752       -167001690.67797565        623454190.58085799     
   4671752186.0839710       -32340866.268837929        720520101.40262520     
   3917088960.0020819        1175126688.0006244        1028723168.1983304     
   3652086930.0479841        455473463.87870526        920175267.23831189     
   3475255199.3142891        29721237.158127546        905392705.87957561     
   3386593767.8009958       -102129992.16110826        984375484.12212205     
   3386102635.5081053        59919775.920998096        1157123601.9659507     
   1612505834.7642109        483751750.42926323        805489254.07742524     
   1600464628.3613448        160063080.94129616        974156483.59912431     
   1632508571.5683472       -16675089.847111583        1152267186.7203455     
   1708637664.3852165       -46462761.935959935        1339821363.4410894     
   1828851906.8119540        70700064.674750149        1536819013.7613556     
  -2.4035260960995576E-003  -7.2105782882986725E-004   731077949.37109470     
  -1.9230324750179246E-003   8.9862869892573505E-004   1125527634.8288875     
  -2.1098621933806267E-003   2.9442451224301314E-004   1445098927.8844421     
  -2.9639008738156216E-003  -2.5333758671450238E-003   1689791828.5377591     
  -4.4844622520906546E-003  -7.5843063514473025E-003   1859606336.7888391     
   5685800558.5395508       -206081861.89476204        227008512.07137820     
   5015304615.2663240        74998895.845594883        417072993.06635904     
   4272535320.9215927        115168483.34760523        614023811.40213549     
   3457492675.5053573       -85573099.388731480        817860967.07870376     
   2570176679.0176187       -527225852.36341417        1028584460.0960732     
   4671752186.0839710       -32340866.268837929        720520101.40262520     
   4028110531.7363195        136238792.96686196        758168255.47407186     
   3330263864.0848107        124135074.52304494        835549009.49470353     
   2578212183.1294503       -68652021.600286603        952662363.46451497     
   1771955488.8702312       -442122495.40314031        1109508317.3835094     
   3386102635.5081053        59919775.920998096        1157123601.9659507     
   2863161734.6814203        144152276.03066194        1063435156.5094556     
   2304084158.3185277        107929191.01963627        1042325573.6105289     
   1708869906.4194283       -48749479.112079978        1093794853.2691722     
   1077518978.9841228       -325883734.36448270        1217842995.4853861     
   1828851906.8119540        70700064.674750149        1536819013.7613556     
   1520458224.1016276        98739345.036993980        1332873696.1725066     
   1193996203.6227431        66550832.837377787        1234353503.7496152     
   849465845.37529945       -25865471.924101830        1241258436.4926796     
   486867149.35929704       -178509569.24744371        1353588494.4017029     
  -4.4844622520906546E-003  -7.5843063514473025E-003   1859606336.7888391     
  -3.0596118587407246E-003  -1.4142773490783285E-002   1566483874.4632273     
  -2.5449136845498042E-003  -2.3733173164825722E-002   1411632799.9119592     
  -2.9410840178103088E-003  -3.6360755294951357E-002   1395053113.1350369     
  -4.2456880502148853E-003  -5.2016449755557248E-002   1516744814.1324558     
  -2.4035260960995576E-003  -7.2105782882986725E-004   731077949.37109470     
  -1.9230324750179246E-003   8.9862869892573505E-004   1125527634.8288875     
  -2.1098621933806267E-003   2.9442451224301314E-004   1445098927.8844421     
  -2.9639008738156216E-003  -2.5333758671450238E-003   1689791828.5377591     
  -4.4844622520906546E-003  -7.5843063514473025E-003   1859606336.7888391     
  -1612505834.7682812       -483751750.43048441        805489254.07904828     
  -1600464628.3646536       -160063080.94034088        974156483.59994733     
  -1632508571.5718942        16675089.846909642        1152267186.7204611     
  -1708637664.3900015        46462761.931267619        1339821363.4405897     
  -1828851906.8189776       -70700064.687267840        1536819013.7603323     
  -3917088960.0039420       -1175126688.0011826        1028723168.2009958     
  -3652086930.0490189       -455473463.87807119        920175267.23976731     
  -3475255199.3151627       -29721237.158521175        905392705.88000572     
  -3386593767.8023748        102129992.15746713        984375484.12171102     
  -3386102635.5106568       -59919775.930106044        1157123601.9648833     
  -6913749375.7093868       -2074124812.7128162        1400779691.7369368     
  -6154866905.0550165       -886231148.81229067        963583985.74834669     
  -5528239883.2319164       -139188981.01599765        704475485.36307514     
  -5033868310.2400846        167001690.67606592        623454190.58112371     
  -4671752186.0795221        32340866.263898134        720520101.40249109     
  -10602487081.884615       -3180746124.5653844        1921658824.6868718     
  -9108804553.3826485       -1452336135.7430015        1104382639.1256855     
  -7791462623.3221550       -311728141.72551823        549515525.16967058     
  -6650461291.7031269        241077857.48706388        257057482.81882706     
  -5685800558.5255718        206081861.89474845        227008512.07315546     
  -4.4844622520906546E-003  -7.5843063514473025E-003   1859606336.7888391     
  -3.0596118587407246E-003  -1.4142773490783285E-002   1566483874.4632273     
  -2.5449136845498042E-003  -2.3733173164825722E-002   1411632799.9119592     
  -2.9410840178103088E-003  -3.6360755294951357E-002   1395053113.1350369     
  -4.2456880502148853E-003  -5.2016449755557248E-002   1516744814.1324558     
  -1828851906.8189776       -70700064.687267840        1536819013.7603323     
  -1520458224.1052718       -98739345.059315979        1332873696.1703026     
  -1193996203.6244240       -66550832.874229193        1234353503.7458732     
  -849465845.37643576        25865471.867995203        1241258436.4870446     
  -486867149.36130494        178509569.16735992        1353588494.3938172     
  -3386102635.5106568       -59919775.930106044        1157123601.9648833     
  -2863161734.6810780       -144152276.04656577        1063435156.5064945     
  -2304084158.3163071       -107929191.04572439        1042325573.6049622     
  -1708869906.4163439        48749479.072430015        1093794853.2602899     
  -1077518978.9811869        325883734.30789119        1217842995.4724746     
  -4671752186.0795221        32340866.263898134        720520101.40249109     
  -4028110531.7304797       -136238792.97589898        758168255.47180188     
  -3330263864.0781922       -124135074.53821707        835549009.48922849     
  -2578212183.1226654        68652021.576939464        952662363.45476842     
  -1771955488.8638940        442122495.36956894        1109508317.3684232     
  -5685800558.5255718        206081861.89474845        227008512.07315546     
  -5015304615.2534771       -74998895.847306490        417072993.06622642     
  -4272535320.9100866       -115168483.35171819        614023811.39867020     
  -3457492675.4954038        85573099.381517410        817860967.07048237     
  -2570176679.0094223        527225852.35241044        1028584460.0816686     
 </DataArray>
 <DataArray  type="Float64" Name="VM" NumberOfComponents="1" format="ascii">
   9994217150.4116230     
   8689622412.8290195     
   7699425174.4810390     
   6788834107.1126270     
   5804923486.5255003     
   6606700861.5600157     
   5999886648.3296509     
   5594657883.3118372     
   5232061699.8742914     
   4851273088.7962208     
   3911041670.4011841     
   3797622138.1044707     
   3799236900.2097235     
   3838268614.8298340     
   3909372330.3436041     
   2000144274.3837342     
   2275494337.6720996     
   2583746026.7506704     
   2895920119.6229582     
   3210270376.6626678     
   1266264152.6040034     
   1949471048.8464630     
   2502984765.0591664     
   2926805301.2421155     
   3220932657.3953104     
   5804923486.5255003     
   5030369027.6610374     
   4348199185.6429453     
   3776789166.1147509     
   3378283118.0555882     
   4851273088.7962208     
   4173716312.6689687     
   3575904194.7469878     
   3090564248.8190799     
   2794950099.1951532     
   3909372330.3436041     
   3346405043.2115035     
   2886364908.2968750     
   2568088964.5225086     
   2463294126.1799679     
   3210270376.6626678     
   2738808224.4177637     
   2433409176.9609904     
   2316549286.8842268     
   2419177787.8198662     
   3220932657.3953104     
   2713229659.8076568     
   2445019731.0782242     
   2416302871.2070169     
   2627079080.1940269     