 <VTKFile type="UnstructuredGrid"  version="0.1"   >
 <UnstructuredGrid>
 <Piece  NumberOfPoints="          1600 "  NumberOfCells="         1024 ">
 <Points>
 <DataArray  type="Float64" NumberOfComponents="3"  format="ascii" >
   0.0000000000000000        0.0000000000000000        0.0000000000000000     
   3.1250000000000000E-002   0.0000000000000000        0.0000000000000000     
   6.2500000000000000E-002   0.0000000000000000        0.0000000000000000     
   9.3750000000000000E-002   0.0000000000000000        0.0000000000000000     
  0.12500000000000000        0.0000000000000000        0.0000000000000000     
   0.0000000000000000        3.1250000000000000E-002   0.0000000000000000     
   3.1250000000000000E-002   3.1250000000000000E-002   0.0000000000000000     
   6.2500000000000000E-002   3.1250000000000000E-002   0.0000000000000000     
   9.3750000000000000E-002   3.1250000000000000E-002   0.0000000000000000     
  0.12500000000000000        3.1250000000000000E-002   0.0000000000000000     
   0.0000000000000000        6.2500000000000000E-002   0.0000000000000000     
   3.1250000000000000E-002   6.2500000000000000E-002   0.0000000000000000     
   6.2500000000000000E-002   6.2500000000000000E-002   0.0000000000000000     
   9.3750000000000000E-002   6.2500000000000000E-002   0.0000000000000000     
  0.12500000000000000        6.2500000000000000E-002   0.0000000000000000     
   0.0000000000000000        9.3750000000000000E-002   0.0000000000000000     
   3.1250000000000000E-002   9.3750000000000000E-002   0.0000000000000000     
   6.2500000000000000E-002   9.3750000000000000E-002   0.0000000000000000     
   9.3750000000000000E-002   9.3750000000000000E-002   0.0000000000000000     
  0.12500000000000000        9.3750000000000000E-002   0.0000000000000000     
   0.0000000000000000       0.12500000000000000        0.0000000000000000     
   3.1250000000000000E-002  0.12500000000000000        0.0000000000000000     
   6.2500000000000000E-002  0.12500000000000000        0.0000000000000000     
   9.3750000000000000E-002  0.12500000000000000        0.0000000000000000     
  0.12500000000000000       0.12500000000000000        0.0000000000000000     
  0.12500000000000000        0.0000000000000000        0.0000000000000000     
  0.15625000000000000        0.0000000000000000        0.0000000000000000     
  0.18750000000000000        0.0000000000000000        0.0000000000000000     
  0.21875000000000000        0.0000000000000000        0.0000000000000000     
  0.25000000000000000        0.0000000000000000        0.0000000000000000     
  0.12500000000000000        3.1250000000000000E-002   0.0000000000000000     
  0.15625000000000000        3.1250000000000000E-002   0.0000000000000000     
  0.18750000000000000        3.1250000000000000E-002   0.0000000000000000     
  0.21875000000000000        3.1250000000000000E-002   0.0000000000000000     
  0.25000000000000000        3.1250000000000000E-002   0.0000000000000000     
  0.12500000000000000        6.2500000000000000E-002   0.0000000000000000     
  0.15625000000000000        6.2500000000000000E-002   0.0000000000000000     
  0.18750000000000000        6.2500000000000000E-002   0.0000000000000000     
  0.21875000000000000        6.2500000000000000E-002   0.0000000000000000     
  0.25000000000000000        6.2500000000000000E-002   0.0000000000000000     
  0.12500000000000000        9.3750000000000000E-002   0.0000000000000000     
  0.15625000000000000        9.3750000000000000E-002   0.0000000000000000     
  0.18750000000000000        9.3750000000000000E-002   0.0000000000000000     
  0.21875000000000000        9.3750000000000000E-002   0.0000000000000000     
  0.25000000000000000        9.3750000000000000E-002   0.0000000000000000     
  0.12500000000000000       0.12500000000000000        0.0000000000000000     
  0.15625000000000000       0.12500000000000000        0.0000000000000000     
  0.18750000000000000       0.12500000000000000        0.0000000000000000     
  0.21875000000000000       0.12500000000000000        0.0000000000000000     
  0.25000000000000000       0.12500000000000000        0.0000000000000000     
  0.25000000000000000        0.0000000000000000        0.0000000000000000     
  0.28125000000000000        0.0000000000000000        0.0000000000000000     
  0.31250000000000000        0.0000000000000000        0.0000000000000000     
  0.34375000000000000        0.0000000000000000        0.0000000000000000     
  0.37500000000000000        0.0000000000000000        0.0000000000000000     
  0.25000000000000000        3.1250000000000000E-002   0.0000000000000000     
  0.28125000000000000        3.1250000000000000E-002   0.0000000000000000     
  0.31250000000000000        3.1250000000000000E-002   0.0000000000000000     
  0.34375000000000000        3.1250000000000000E-002   0.0000000000000000     
  0.37500000000000000        3.1250000000000000E-002   0.0000000000000000     
  0.25000000000000000        6.2500000000000000E-002   0.0000000000000000     
  0.28125000000000000        6.2500000000000000E-002   0.0000000000000000     
  0.31250000000000000        6.2500000000000000E-002   0.0000000000000000     
  0.34375000000000000        6.2500000000000000E-002   0.0000000000000000     
  0.37500000000000000        6.2500000000000000E-002   0.0000000000000000     
  0.25000000000000000        9.3750000000000000E-002   0.0000000000000000     
  0.28125000000000000        9.3750000000000000E-002   0.0000000000000000     
  0.31250000000000000        9.3750000000000000E-002   0.0000000000000000     
  0.34375000000000000        9.3750000000000000E-002   0.0000000000000000     
  0.37500000000000000        9.3750000000000000E-002   0.0000000000000000     
  0.25000000000000000       0.12500000000000000        0.0000000000000000     
  0.28125000000000000       0.12500000000000000        0.0000000000000000     
  0.31250000000000000       0.12500000000000000        0.0000000000000000     
  0.34375000000000000       0.12500000000000000        0.0000000000000000     
  0.37500000000000000       0.12500000000000000        0.0000000000000000     
  0.37500000000000000        0.0000000000000000        0.0000000000000000     
  0.40625000000000000        0.0000000000000000        0.0000000000000000     
  0.43750000000000000        0.0000000000000000        0.0000000000000000     
  0.46875000000000000        0.0000000000000000        0.0000000000000000     
  0.50000000000000000        0.0000000000000000        0.0000000000000000     
  0.37500000000000000        3.1250000000000000E-002   0.0000000000000000     
  0.40625000000000000        3.1250000000000000E-002   0.0000000000000000     
  0.43750000000000000        3.1250000000000000E-002   0.0000000000000000     
  0.46875000000000000        3.1250000000000000E-002   0.0000000000000000     
  0.50000000000000000        3.1250000000000000E-002   0.0000000000000000     
  0.37500000000000000        6.2500000000000000E-002   0.0000000000000000     
  0.40625000000000000        6.2500000000000000E-002   0.0000000000000000     
  0.43750000000000000        6.2500000000000000E-002   0.0000000000000000     
  0.46875000000000000        6.2500000000000000E-002   0.0000000000000000     
  0.50000000000000000        6.2500000000000000E-002   0.0000000000000000     
  0.37500000000000000        9.3750000000000000E-002   0.0000000000000000     
  0.40625000000000000        9.3750000000000000E-002   0.0000000000000000     
  0.43750000000000000        9.3750000000000000E-002   0.0000000000000000     
  0.46875000000000000        9.3750000000000000E-002   0.0000000000000000     
  0.50000000000000000        9.3750000000000000E-002   0.0000000000000000     
  0.37500000000000000       0.12500000000000000        0.0000000000000000     
  0.40625000000000000       0.12500000000000000        0.0000000000000000     
  0.43750000000000000       0.12500000000000000        0.0000000000000000     
  0.46875000000000000       0.12500000000000000        0.0000000000000000     
  0.50000000000000000       0.12500000000000000        0.0000000000000000     
  0.50000000000000000        0.0000000000000000        0.0000000000000000     
  0.53125000000000000        0.0000000000000000        0.0000000000000000     
  0.56250000000000000        0.0000000000000000        0.0000000000000000     
  0.59375000000000000        0.0000000000000000        0.0000000000000000     
  0.62500000000000000        0.0000000000000000        0.0000000000000000     
  0.50000000000000000        3.1250000000000000E-002   0.0000000000000000     
  0.53125000000000000        3.1250000000000000E-002   0.0000000000000000     
  0.56250000000000000        3.1250000000000000E-002   0.0000000000000000     
  0.59375000000000000        3.1250000000000000E-002   0.0000000000000000     
  0.62500000000000000        3.1250000000000000E-002   0.0000000000000000     
  0.50000000000000000        6.2500000000000000E-002   0.0000000000000000     
  0.53125000000000000        6.2500000000000000E-002   0.0000000000000000     
  0.56250000000000000        6.2500000000000000E-002   0.0000000000000000     
  0.59375000000000000        6.2500000000000000E-002   0.0000000000000000     
  0.62500000000000000        6.2500000000000000E-002   0.0000000000000000     
  0.50000000000000000        9.3750000000000000E-002   0.0000000000000000     
  0.53125000000000000        9.3750000000000000E-002   0.0000000000000000     
  0.56250000000000000        9.3750000000000000E-002   0.0000000000000000     
  0.59375000000000000        9.3750000000000000E-002   0.0000000000000000     
  0.62500000000000000        9.3750000000000000E-002   0.0000000000000000     
  0.50000000000000000       0.12500000000000000        0.0000000000000000     
  0.53125000000000000       0.12500000000000000        0.0000000000000000     
  0.56250000000000000       0.12500000000000000        0.0000000000000000     
[...]
 <PointData>
 <DataArray  type="Float64" Name="disp" NumberOfComponents="3" format="ascii">
   0.0000000000000000        0.0000000000000000        0.0000000000000000     
   6.0961408590495137E-003   3.7904522595912302E-003   0.0000000000000000     
   1.1666428367645702E-002   7.3235458607443828E-003   0.0000000000000000     
   1.6710862525788565E-002   1.0599280803459454E-002   0.0000000000000000     
   2.1229443333478100E-002   1.3617657087736452E-002   0.0000000000000000     
   0.0000000000000000        0.0000000000000000        0.0000000000000000     
   4.8914109981440627E-003   3.0218534101483737E-003   0.0000000000000000     
   9.5742226096976607E-003   6.0598313231303731E-003   0.0000000000000000     
   1.4048434834660794E-002   9.1139337389459976E-003   0.0000000000000000     
   1.8314047673033459E-002   1.2184160657595249E-002   0.0000000000000000     
   0.0000000000000000        0.0000000000000000        0.0000000000000000     
   3.9538435813923460E-003   2.4246249684831476E-003   0.0000000000000000     
   7.9112337173509496E-003   5.0619336350159177E-003   0.0000000000000000     
   1.1872170407875813E-002   7.9119259995983106E-003   0.0000000000000000     
   1.5836653652966937E-002   1.0974602062230327E-002   0.0000000000000000     
   0.0000000000000000        0.0000000000000000        0.0000000000000000     
   3.2834386087943635E-003   1.9987669345955519E-003   0.0000000000000000     
   6.6774616906055727E-003   4.3298527964010167E-003   0.0000000000000000     
   1.0182069245433630E-002   6.9932575854163952E-003   0.0000000000000000     
   1.3797261273278530E-002   9.9889813016416883E-003   0.0000000000000000     
   0.0000000000000000        0.0000000000000000        0.0000000000000000     
   2.8801960803501152E-003   1.7442793084855867E-003   0.0000000000000000     
   5.8729065294615274E-003   3.8635888072856709E-003   0.0000000000000000     
   8.9781313473342363E-003   6.3579284964002522E-003   0.0000000000000000     
   1.2195870533968242E-002   9.2272983758293313E-003   0.0000000000000000     
   2.1229443333478100E-002   1.3617657087736452E-002   0.0000000000000000     
   2.5435205588608487E-002   1.6609751500259284E-002   0.0000000000000000     
   2.9541184089073899E-002   1.9806640827711861E-002   0.0000000000000000     
   3.3547378834874332E-002   2.3208325070094189E-002   0.0000000000000000     
   3.7453789826009790E-002   2.6814804227406265E-002   0.0000000000000000     
   1.8314047673033459E-002   1.2184160657595249E-002   0.0000000000000000     
   2.2409340348309572E-002   1.5339022354212164E-002   0.0000000000000000     
   2.6372592083983036E-002   1.8647029103930787E-002   0.0000000000000000     
   3.0203802880053861E-002   2.2108180906751110E-002   0.0000000000000000     
   3.3902972736522034E-002   2.5722477762673140E-002   0.0000000000000000     
   1.5836653652966937E-002   1.0974602062230327E-002   0.0000000000000000     
   1.9732906256881889E-002   1.4208746834390714E-002   0.0000000000000000     
   2.3489151023878239E-002   1.7573145327558218E-002   0.0000000000000000     
   2.7105387953955992E-002   2.1067797541732849E-002   0.0000000000000000     
   3.0581617047115137E-002   2.4692703476914591E-002   0.0000000000000000     
   1.3797261273278530E-002   9.9889813016416883E-003   0.0000000000000000     
   1.7405903314325438E-002   1.3218924940794933E-002   0.0000000000000000     
   2.0890860908759499E-002   1.6584989498594174E-002   0.0000000000000000     
   2.4252134056580724E-002   2.0087174975039410E-002   0.0000000000000000     
   2.7489722757789110E-002   2.3725481370130638E-002   0.0000000000000000     
   1.2195870533968242E-002   9.2272983758293313E-003   0.0000000000000000     
   1.5428331520640213E-002   1.2369556673424821E-002   0.0000000000000000     
   1.8577721738626825E-002   1.5682561617038644E-002   0.0000000000000000     
   2.1644041187928061E-002   1.9166313206670789E-002   0.0000000000000000     
   2.4627289868543938E-002   2.2820811442321266E-002   0.0000000000000000     
   3.7453789826009790E-002   2.6814804227406265E-002   0.0000000000000000     
   4.1264856948901057E-002   3.0620844139780341E-002   0.0000000000000000     
   4.4985020089968950E-002   3.4621210647348667E-002   0.0000000000000000     
   4.8614279249213438E-002   3.8815903750111222E-002   0.0000000000000000     
   5.2152634426634530E-002   4.3204923448068040E-002   0.0000000000000000     
   3.3902972736522034E-002   2.5722477762673140E-002   0.0000000000000000     
   3.7493471923131183E-002   2.9518827103383324E-002   0.0000000000000000     
   4.0998670709624964E-002   3.3526136360568122E-002   0.0000000000000000     
   4.4418569096003328E-002   3.7744405534227539E-002   0.0000000000000000     
   4.7753167082266318E-002   4.2173634624361564E-002   0.0000000000000000     
   3.0581617047115137E-002   2.4692703476914591E-002   0.0000000000000000     
   3.3947509551812118E-002   2.8492867983543287E-002   0.0000000000000000     
   3.7232736716503345E-002   3.2513295912058732E-002   0.0000000000000000     
   4.0437298541188840E-002   3.6753987262460958E-002   0.0000000000000000     
   4.3561195025868568E-002   4.1214942034749950E-002   0.0000000000000000     
   2.7489722757789110E-002   2.3725481370130638E-002   0.0000000000000000     
   3.0626969834943844E-002   2.7542966780260213E-002   0.0000000000000000     
   3.3687218110604135E-002   3.1582689301820510E-002   0.0000000000000000     
   3.6670467584769946E-002   3.5844648934811499E-002   0.0000000000000000     
   3.9576718257441315E-002   4.0328845679233200E-002   0.0000000000000000     
   2.4627289868543938E-002   2.2820811442321266E-002   0.0000000000000000     
   2.7531852772526372E-002   2.6669123493534126E-002   0.0000000000000000     
   3.0362114891927285E-002   3.0734316529853416E-002   0.0000000000000000     
   3.3118076226746673E-002   3.5016390551279149E-002   0.0000000000000000     
   3.5799736776984545E-002   3.9515345557811311E-002   0.0000000000000000     
   5.2152634426634530E-002   4.3204923448068040E-002   0.0000000000000000     
   5.5598363687115473E-002   4.7795325881657399E-002   0.0000000000000000     
   5.8949745095539505E-002   5.2594167191317612E-002   0.0000000000000000     
   6.2206778651906637E-002   5.7601447377048663E-002   0.0000000000000000     
   6.5369464356216850E-002   6.2817166438850561E-002   0.0000000000000000     
   4.7753167082266318E-002   4.2173634624361564E-002   0.0000000000000000     
   5.0997820924994545E-002   4.6808152790111919E-002   0.0000000000000000     
   5.4147886880768707E-002   5.1642289190620305E-002   0.0000000000000000     
   5.7203364949588761E-002   5.6676043825886757E-002   0.0000000000000000     
   6.0164255131454736E-002   6.1909416695911240E-002   0.0000000000000000     
   4.3561195025868568E-002   4.1214942034749950E-002   0.0000000000000000     
   4.6598942612682888E-002   4.5883589456210280E-002   0.0000000000000000     
   4.9545057743772103E-002   5.0747358754126573E-002   0.0000000000000000     
   5.2399540419136220E-002   5.5806249928498794E-002   0.0000000000000000     
   5.5162390638775233E-002   6.1060262979326971E-002   0.0000000000000000     
   3.9576718257441315E-002   4.0328845679233200E-002   0.0000000000000000     
   4.2401728750180480E-002   4.5021635879952525E-002   0.0000000000000000     
   4.5141257684549713E-002   4.9909375881836388E-002   0.0000000000000000     
   4.7795305060549007E-002   5.4992065684884787E-002   0.0000000000000000     
   5.0363870878178355E-002   6.0269705289097746E-002   0.0000000000000000     
   3.5799736776984545E-002   3.9515345557811311E-002   0.0000000000000000     
   3.8406179337487342E-002   4.4222292061338611E-002   0.0000000000000000     
   4.0936486703101543E-002   4.9128340573749756E-002   0.0000000000000000     
   4.3390658873827127E-002   5.4233491095044738E-002   0.0000000000000000     
   4.5768695849664115E-002   5.9537743625223571E-002   0.0000000000000000     
   6.5369464356216850E-002   6.2817166438850561E-002   0.0000000000000000     
   6.8439508799256935E-002   6.8223056990491665E-002   0.0000000000000000     
   7.1418618571813683E-002   7.3800851645740309E-002   0.0000000000000000     
   7.4306793673887067E-002   7.9550550404596507E-002   0.0000000000000000     
   7.7104034105477115E-002   8.5472153267060244E-002   0.0000000000000000     
   6.0164255131454736E-002   6.1909416695911240E-002   0.0000000000000000     
   6.3035699721974925E-002   6.7330902522991454E-002   0.0000000000000000     
   6.5822841016757616E-002   7.2928996029425069E-002   0.0000000000000000     
   6.8525679015802851E-002   7.8703697215212073E-002   0.0000000000000000     
   7.1144213719110602E-002   8.4655006080352507E-002   0.0000000000000000     
   5.5162390638775233E-002   6.1060262979326971E-002   0.0000000000000000     
   5.7840220499496428E-002   6.6501522033129049E-002   0.0000000000000000     
   6.0439642098107052E-002   7.2122151216423042E-002   0.0000000000000000     
   6.2960655434607146E-002   7.7922150529208881E-002   0.0000000000000000     
   6.5403260508996669E-002   8.3901519971486649E-002   0.0000000000000000     
   5.0363870878178355E-002   6.0269705289097746E-002   0.0000000000000000     
   5.2853071131821451E-002   6.5734915520904449E-002   0.0000000000000000     
   5.5269021815861984E-002   7.1380317206734184E-002   0.0000000000000000     
   5.7611722930299931E-002   7.7205910346586915E-002   0.0000000000000000     
   5.9881174475135322E-002   8.3211694940462627E-002   0.0000000000000000     
   4.5768695849664115E-002   5.9537743625223571E-002   0.0000000000000000     
   4.8074251618950022E-002   6.5031082986317684E-002   0.0000000000000000     
   5.0310980170022397E-002   7.0703494000358566E-002   0.0000000000000000     
   5.2478881502881256E-002   7.6554976667346161E-002   0.0000000000000000     
   5.4577955617526576E-002   8.2585530987280498E-002   0.0000000000000000     
   7.7104034105477115E-002   8.5472153267060244E-002   0.0000000000000000     
   7.9801984215594590E-002   9.1562373879902278E-002   0.0000000000000000     
   8.2392288353250256E-002   9.7817925889893367E-002   0.0000000000000000     
   8.4874946518444128E-002  0.10423880929703352        0.0000000000000000     
   8.7249958711176176E-002  0.11082502410132272        0.0000000000000000     
   7.1144213719110602E-002   8.4655006080352507E-002   0.0000000000000000     
   7.3669924712518361E-002   9.0775468518008690E-002   0.0000000000000000     
   7.6094291581863621E-002   9.7057630421342980E-002   0.0000000000000000     
   7.8417314327146423E-002  0.10350149179035535        0.0000000000000000     
   8.0638992948366697E-002  0.11010705262504586        0.0000000000000000     
   6.5403260508996669E-002   8.3901519971486649E-002   0.0000000000000000     
   6.7759139198388232E-002   9.0050233243302011E-002   0.0000000000000000     
   7.0019973379894435E-002   9.6358264044700742E-002   0.0000000000000000     
   7.2185763053515276E-002  0.10282561237568281        0.0000000000000000     
   7.4256508219250728E-002  0.10945227823624824        0.0000000000000000     
   5.9881174475135322E-002   8.3211694940462627E-002   0.0000000000000000     
   6.2069627673204210E-002   8.9386668055782256E-002   0.0000000000000000     
   6.4169333747342683E-002   9.5719826759966667E-002   0.0000000000000000     
   6.6180292697550713E-002  0.10221117105301589        0.0000000000000000     
   6.8102504523828322E-002  0.10886070093492990        0.0000000000000000     
   5.4577955617526576E-002   8.2585530987280498E-002   0.0000000000000000     
   5.6601390136966287E-002   8.8784772955449426E-002   0.0000000000000000     
   5.8542372684208352E-002   9.5142318567140796E-002   0.0000000000000000     
   6.0400903259252722E-002  0.10165816782235462        0.0000000000000000     
   6.2176981862099440E-002  0.10833232072109085        0.0000000000000000     
   8.7249958711176176E-002  0.11082502410132272        0.0000000000000000     
   8.9538303186438198E-002  0.11755783574729095        0.0000000000000000     
   9.1760958199221934E-002  0.12441850967946816        0.0000000000000000     
   9.3917923749527440E-002  0.13140704589785435        0.0000000000000000     
   9.6009199837354661E-002  0.13852344440244951        0.0000000000000000     
   8.0638992948366697E-002  0.11010705262504586        0.0000000000000000     
   8.2776592337540922E-002  0.11685844024595414        0.0000000000000000     
   8.4847377386685491E-002  0.12373978197361991        0.0000000000000000     
   8.6851348095800460E-002  0.13075107780804315        0.0000000000000000     
   8.8788504464885787E-002  0.13789232774922389        0.0000000000000000     
   7.4256508219250728E-002  0.10945227823624824        0.0000000000000000     
   7.6246790492334238E-002  0.11622457378683330        0.0000000000000000     
   7.8171191487999253E-002  0.12312881118787428        0.0000000000000000     
   8.0029711206245704E-002  0.13016499043937113        0.0000000000000000     
   8.1822349647073633E-002  0.13733311154132391        0.0000000000000000     
   6.8102504523828322E-002  0.10886070093492990        0.0000000000000000     
   6.9948897650818243E-002  0.11565623636992844        0.0000000000000000     
   7.1732400503163207E-002  0.12258559732223123        0.0000000000000000     
   7.3453013080863216E-002  0.12964878379183825        0.0000000000000000     
   7.5110735383918270E-002  0.13684579577874953        0.0000000000000000     
   6.2176981862099440E-002  0.10833232072109085        0.0000000000000000     
   6.3882913812992853E-002  0.11515342799523957        0.0000000000000000     
   6.5531004432177353E-002  0.12211014037669080        0.0000000000000000     
   6.7121253719652968E-002  0.12920245786544454        0.0000000000000000     
   6.8653661675419628E-002  0.13643038046150077        0.0000000000000000     
   9.6009199837354661E-002  0.13852344440244951        0.0000000000000000     
   9.8031873865530028E-002  0.14581473402760811        0.0000000000000000     
   9.9983033236879904E-002  0.15332794360768454        0.0000000000000000     
  0.10186267795140434       0.16106307314267881        0.0000000000000000     
  0.10367080800910329       0.16902012263259089        0.0000000000000000     
   8.8788504464885787E-002  0.13789232774922389        0.0000000000000000     
   9.0636562944392512E-002  0.14517056525353558        0.0000000000000000     
   9.2373239984771732E-002  0.15259282377735178        0.0000000000000000     
   9.3998535586023405E-002  0.16015910332067243        0.0000000000000000     
   9.5512449748147557E-002  0.16786940388349758        0.0000000000000000     
   8.1822349647073633E-002  0.13733311154132391        0.0000000000000000     
   8.3515095065774800E-002  0.14461668971245301        0.0000000000000000     
   8.5073935717640908E-002  0.15199924017147898        0.0000000000000000     
   8.6498871602671987E-002  0.15948076291840171        0.0000000000000000     
   8.7789902720868021E-002  0.16706125795322133        0.0000000000000000     
   7.5110735383918270E-002  0.13684579577874953        0.0000000000000000     
   7.6667470229676835E-002  0.14415310740436035        0.0000000000000000     
   7.8085120435487473E-002  0.15154719279006604        0.0000000000000000     
   7.9363686001350076E-002  0.15902805193586667        0.0000000000000000     
   8.0503166927264738E-002  0.16659568484176218        0.0000000000000000     
   6.8653661675419628E-002  0.13643038046150077        0.0000000000000000     
   7.0093688436098672E-002  0.14377981832925762        0.0000000000000000     
   7.1406794138311344E-002  0.15123668163311310        0.0000000000000000     
   7.2592978782057685E-002  0.15880097037306726        0.0000000000000000     
   7.3652242367337667E-002  0.16647268454912012        0.0000000000000000     
   0.0000000000000000        0.0000000000000000        0.0000000000000000     
   2.8801960803501152E-003   1.7442793084855867E-003   0.0000000000000000     
   5.8729065294615274E-003   3.8635888072856709E-003   0.0000000000000000     
   8.9781313473342363E-003   6.3579284964002522E-003   0.0000000000000000     
   1.2195870533968242E-002   9.2272983758293313E-003   0.0000000000000000     
   0.0000000000000000        0.0000000000000000        0.0000000000000000     
   2.6103180579222056E-003   1.5884544089967581E-003   0.0000000000000000     
   5.2896851292487217E-003   3.5557820374194724E-003   0.0000000000000000     
   8.0381012139795482E-003   5.9019828852681427E-003   0.0000000000000000     
   1.0855566312114685E-002   8.6270569525427679E-003   0.0000000000000000     
   0.0000000000000000        0.0000000000000000        0.0000000000000000     
   2.3400066033732389E-003   1.4585845549725731E-003   0.0000000000000000     
   4.7199143852970638E-003   3.2990728565520161E-003   0.0000000000000000     
   7.1397233457714754E-003   5.5214649047383279E-003   0.0000000000000000     
   9.5994334847964713E-003   8.1257606995315101E-003   0.0000000000000000     
   0.0000000000000000        0.0000000000000000        0.0000000000000000     
   2.0692617167032152E-003   1.3546697464130310E-003   0.0000000000000000     
   4.1635942976065536E-003   3.0934612646833009E-003   0.0000000000000000     
   6.2829977427100144E-003   5.2163745548108103E-003   0.0000000000000000     
   8.4274720520136001E-003   7.7234096167955587E-003   0.0000000000000000     
   0.0000000000000000        0.0000000000000000        0.0000000000000000     
   1.7980833979121340E-003   1.2767099833181324E-003   0.0000000000000000     
   3.6207248661771904E-003   2.9389472618133283E-003   0.0000000000000000     
   5.4679244047951695E-003   4.9867118354855883E-003   0.0000000000000000     
   7.3396820137660718E-003   7.4200037043349130E-003   0.0000000000000000     
   1.2195870533968242E-002   9.2272983758293313E-003   0.0000000000000000     
   1.5428331520640213E-002   1.2369556673424821E-002   0.0000000000000000     
   1.8577721738626825E-002   1.5682561617038644E-002   0.0000000000000000     
   2.1644041187928061E-002   1.9166313206670789E-002   0.0000000000000000     
   2.4627289868543938E-002   2.2820811442321266E-002   0.0000000000000000     
   1.0855566312114685E-002   8.6270569525427679E-003   0.0000000000000000     
   1.3688687272843048E-002   1.1648755574083821E-002   0.0000000000000000     
   1.6484070945353552E-002   1.4884830084731772E-002   0.0000000000000000     
   1.9241717329646201E-002   1.8335280484486616E-002   0.0000000000000000     
   2.1961626425720991E-002   2.2000106773348356E-002   0.0000000000000000     
   9.5994334847964713E-003   8.1257606995315101E-003   0.0000000000000000     
   1.2075466967950759E-002   1.1044635184575369E-002   0.0000000000000000     
   1.4544245960813048E-002   1.4210763303513700E-002   0.0000000000000000     
   1.7005770463383332E-002   1.7624145056346508E-002   0.0000000000000000     
   1.9460040475661616E-002   2.1284780443073789E-002   0.0000000000000000     
   8.4274720520136001E-003   7.7234096167955587E-003   0.0000000000000000     
   1.0588670605963349E-002   1.0557195504899459E-002   0.0000000000000000     
   1.2758246785005299E-002   1.3660361273384427E-002   0.0000000000000000     
   1.4936200589139458E-002   1.7032906922250460E-002   0.0000000000000000     
   1.7122532018365819E-002   2.0674832451497559E-002   0.0000000000000000     
   7.3396820137660718E-003   7.4200037043349130E-003   0.0000000000000000     
   9.2282981868808140E-003   1.0186436535056102E-002   0.0000000000000000     
   1.1126073417930317E-002   1.3233623994343958E-002   0.0000000000000000     
   1.3033007706914576E-002   1.6561566082198480E-002   0.0000000000000000     
   1.4949101053833597E-002   2.0170262798619672E-002   0.0000000000000000     
   2.4627289868543938E-002   2.2820811442321266E-002   0.0000000000000000     
   2.7531852772526372E-002   2.6669123493534126E-002   0.0000000000000000     