 <VTKFile type="UnstructuredGrid"  version="0.1"   >
 <UnstructuredGrid>
 <Piece  NumberOfPoints="          6400 "  NumberOfCells="         4096 ">
 <Points>
 <DataArray  type="Float64" NumberOfComponents="3"  format="ascii" >
   0.0000000000000000        0.0000000000000000        0.0000000000000000     
   1.5625000000000000E-002   0.0000000000000000        0.0000000000000000     
   3.1250000000000000E-002   0.0000000000000000        0.0000000000000000     
   4.6875000000000000E-002   0.0000000000000000        0.0000000000000000     
   6.2500000000000000E-002   0.0000000000000000        0.0000000000000000     
   0.0000000000000000        1.5625000000000000E-002   0.0000000000000000     
   1.5625000000000000E-002   1.5625000000000000E-002   0.0000000000000000     
   3.1250000000000000E-002   1.5625000000000000E-002   0.0000000000000000     
   4.6875000000000000E-002   1.5625000000000000E-002   0.0000000000000000     
   6.2500000000000000E-002   1.5625000000000000E-002   0.0000000000000000     
   0.0000000000000000        3.1250000000000000E-002   0.0000000000000000     
   1.5625000000000000E-002   3.1250000000000000E-002   0.0000000000000000     
   3.1250000000000000E-002   3.1250000000000000E-002   0.0000000000000000     
   4.6875000000000000E-002   3.1250000000000000E-002   0.0000000000000000     
   6.2500000000000000E-002   3.1250000000000000E-002   0.0000000000000000     
   0.0000000000000000        4.6875000000000000E-002   0.0000000000000000     
   1.5625000000000000E-002   4.6875000000000000E-002   0.0000000000000000     
   3.1250000000000000E-002   4.6875000000000000E-002   0.0000000000000000     
   4.6875000000000000E-002   4.6875000000000000E-002   0.0000000000000000     
   6.2500000000000000E-002   4.6875000000000000E-002   0.0000000000000000     
   0.0000000000000000        6.2500000000000000E-002   0.0000000000000000     
   1.5625000000000000E-002   6.2500000000000000E-002   0.0000000000000000     
   3.1250000000000000E-002   6.2500000000000000E-002   0.0000000000000000     
   4.6875000000000000E-002   6.2500000000000000E-002   0.0000000000000000     
   6.2500000000000000E-002   6.2500000000000000E-002   0.0000000000000000     
   6.2500000000000000E-002   0.0000000000000000        0.0000000000000000     
   7.8125000000000000E-002   0.0000000000000000        0.0000000000000000     
   9.3750000000000000E-002   0.0000000000000000        0.0000000000000000     
  0.10937500000000000        0.0000000000000000        0.0000000000000000     
  0.12500000000000000        0.0000000000000000        0.0000000000000000     
   6.2500000000000000E-002   1.5625000000000000E-002   0.0000000000000000     
   7.8125000000000000E-002   1.5625000000000000E-002   0.0000000000000000     
   9.3750000000000000E-002   1.5625000000000000E-002   0.0000000000000000     
  0.10937500000000000        1.5625000000000000E-002   0.0000000000000000     
  0.12500000000000000        1.5625000000000000E-002   0.0000000000000000     
   6.2500000000000000E-002   3.1250000000000000E-002   0.0000000000000000     
   7.8125000000000000E-002   3.1250000000000000E-002   0.0000000000000000     
   9.3750000000000000E-002   3.1250000000000000E-002   0.0000000000000000     
  0.10937500000000000        3.1250000000000000E-002   0.0000000000000000     
  0.12500000000000000        3.1250000000000000E-002   0.0000000000000000     
   6.2500000000000000E-002   4.6875000000000000E-002   0.0000000000000000     
   7.8125000000000000E-002   4.6875000000000000E-002   0.0000000000000000     
   9.3750000000000000E-002   4.6875000000000000E-002   0.0000000000000000     
  0.10937500000000000        4.6875000000000000E-002   0.0000000000000000     
  0.12500000000000000        4.6875000000000000E-002   0.0000000000000000     
   6.2500000000000000E-002   6.2500000000000000E-002   0.0000000000000000     
   7.8125000000000000E-002   6.2500000000000000E-002   0.0000000000000000     
   9.3750000000000000E-002   6.2500000000000000E-002   0.0000000000000000     
  0.10937500000000000        6.2500000000000000E-002   0.0000000000000000     
  0.12500000000000000        6.2500000000000000E-002   0.0000000000000000     
  0.12500000000000000        0.0000000000000000        0.0000000000000000     
  0.14062500000000000        0.0000000000000000        0.0000000000000000     
  0.15625000000000000        0.0000000000000000        0.0000000000000000     
  0.17187500000000000        0.0000000000000000        0.0000000000000000     
  0.18750000000000000        0.0000000000000000        0.0000000000000000     
  0.12500000000000000        1.5625000000000000E-002   0.0000000000000000     
  0.14062500000000000        1.5625000000000000E-002   0.0000000000000000     
  0.15625000000000000        1.5625000000000000E-002   0.0000000000000000     
  0.17187500000000000        1.5625000000000000E-002   0.0000000000000000     
  0.18750000000000000        1.5625000000000000E-002   0.0000000000000000     
  0.12500000000000000        3.1250000000000000E-002   0.0000000000000000     
  0.14062500000000000        3.1250000000000000E-002   0.0000000000000000     
  0.15625000000000000        3.1250000000000000E-002   0.0000000000000000     
  0.17187500000000000        3.1250000000000000E-002   0.0000000000000000     
  0.18750000000000000        3.1250000000000000E-002   0.0000000000000000     
  0.12500000000000000        4.6875000000000000E-002   0.0000000000000000     
  0.14062500000000000        4.6875000000000000E-002   0.0000000000000000     
  0.15625000000000000        4.6875000000000000E-002   0.0000000000000000     
  0.17187500000000000        4.6875000000000000E-002   0.0000000000000000     
  0.18750000000000000        4.6875000000000000E-002   0.0000000000000000     
  0.12500000000000000        6.2500000000000000E-002   0.0000000000000000     
  0.14062500000000000        6.2500000000000000E-002   0.0000000000000000     
  0.15625000000000000        6.2500000000000000E-002   0.0000000000000000     
  0.17187500000000000        6.2500000000000000E-002   0.0000000000000000     
  0.18750000000000000        6.2500000000000000E-002   0.0000000000000000     
  0.18750000000000000        0.0000000000000000        0.0000000000000000     
  0.20312500000000000        0.0000000000000000        0.0000000000000000     
  0.21875000000000000        0.0000000000000000        0.0000000000000000     
  0.23437500000000000        0.0000000000000000        0.0000000000000000     
  0.25000000000000000        0.0000000000000000        0.0000000000000000     
  0.18750000000000000        1.5625000000000000E-002   0.0000000000000000     
  0.20312500000000000        1.5625000000000000E-002   0.0000000000000000     
  0.21875000000000000        1.5625000000000000E-002   0.0000000000000000     
  0.23437500000000000        1.5625000000000000E-002   0.0000000000000000     
  0.25000000000000000        1.5625000000000000E-002   0.0000000000000000     
  0.18750000000000000        3.1250000000000000E-002   0.0000000000000000     
  0.20312500000000000        3.1250000000000000E-002   0.0000000000000000     
  0.21875000000000000        3.1250000000000000E-002   0.0000000000000000     
  0.23437500000000000        3.1250000000000000E-002   0.0000000000000000     
  0.25000000000000000        3.1250000000000000E-002   0.0000000000000000     
  0.18750000000000000        4.6875000000000000E-002   0.0000000000000000     
  0.20312500000000000        4.6875000000000000E-002   0.0000000000000000     
  0.21875000000000000        4.6875000000000000E-002   0.0000000000000000     
  0.23437500000000000        4.6875000000000000E-002   0.0000000000000000     
  0.25000000000000000        4.6875000000000000E-002   0.0000000000000000     
  0.18750000000000000        6.2500000000000000E-002   0.0000000000000000     
  0.20312500000000000        6.2500000000000000E-002   0.0000000000000000     
  0.21875000000000000        6.2500000000000000E-002   0.0000000000000000     
  0.23437500000000000        6.2500000000000000E-002   0.0000000000000000     
  0.25000000000000000        6.2500000000000000E-002   0.0000000000000000     
  0.25000000000000000        0.0000000000000000        0.0000000000000000     
  0.26562500000000000        0.0000000000000000        0.0000000000000000     
  0.28125000000000000        0.0000000000000000        0.0000000000000000     
  0.29687500000000000        0.0000000000000000        0.0000000000000000     
  0.31250000000000000        0.0000000000000000        0.0000000000000000     
  0.25000000000000000        1.5625000000000000E-002   0.0000000000000000     
  0.26562500000000000        1.5625000000000000E-002   0.0000000000000000     
  0.28125000000000000        1.5625000000000000E-002   0.0000000000000000     
  0.29687500000000000        1.5625000000000000E-002   0.0000000000000000     
  0.31250000000000000        1.5625000000000000E-002   0.0000000000000000     
  0.25000000000000000        3.1250000000000000E-002   0.0000000000000000     
  0.26562500000000000        3.1250000000000000E-002   0.0000000000000000     
  0.28125000000000000        3.1250000000000000E-002   0.0000000000000000     
  0.29687500000000000        3.1250000000000000E-002   0.0000000000000000     
  0.31250000000000000        3.1250000000000000E-002   0.0000000000000000     
  0.25000000000000000        4.6875000000000000E-002   0.0000000000000000     
  0.26562500000000000        4.6875000000000000E-002   0.0000000000000000     
  0.28125000000000000        4.6875000000000000E-002   0.0000000000000000     
  0.29687500000000000        4.6875000000000000E-002   0.0000000000000000     
  0.31250000000000000        4.6875000000000000E-002   0.0000000000000000     
  0.25000000000000000        6.2500000000000000E-002   0.0000000000000000     
  0.26562500000000000        6.2500000000000000E-002   0.0000000000000000     
  0.28125000000000000        6.2500000000000000E-002   0.0000000000000000     
[...]
 <PointData>
 <DataArray  type="Float64" Name="disp" NumberOfComponents="3" format="ascii">
   0.0000000000000000        0.0000000000000000        0.0000000000000000     
   3.5280222130106833E-003   2.2887637330857146E-003   0.0000000000000000     
   6.7224613015332297E-003   4.3338195023385068E-003   0.0000000000000000     
   9.5833172655676417E-003   6.1351673077583773E-003   0.0000000000000000     
   1.2110590105113915E-002   7.6928071493453255E-003   0.0000000000000000     
   0.0000000000000000        0.0000000000000000        0.0000000000000000     
   2.8676509433965204E-003   1.8505281566971762E-003   0.0000000000000000     
   5.6012818942345237E-003   3.6133790821629231E-003   0.0000000000000000     
   8.2008928525140103E-003   5.2885527763972401E-003   0.0000000000000000     
   1.0666483818234979E-002   6.8760492394001269E-003   0.0000000000000000     
   0.0000000000000000        0.0000000000000000        0.0000000000000000     
   2.3694201986252474E-003   1.5077819365304581E-003   0.0000000000000000     
   4.7389214706915362E-003   3.0397609223065331E-003   0.0000000000000000     
   7.1085038161988693E-003   4.5959369573282255E-003   0.0000000000000000     
   9.4781672351472446E-003   6.1763100415955343E-003   0.0000000000000000     
   0.0000000000000000        0.0000000000000000        0.0000000000000000     
   2.0333299786968640E-003   1.2605250725855601E-003   0.0000000000000000     
   4.1353800309042697E-003   2.6129650227693377E-003   0.0000000000000000     
   6.3061501566222186E-003   4.0573198505513336E-003   0.0000000000000000     
   8.5456403558507067E-003   5.5935895559315468E-003   0.0000000000000000     
   0.0000000000000000        0.0000000000000000        0.0000000000000000     
   1.8593802836113702E-003   1.1087575648624820E-003   0.0000000000000000     
   3.7906575748727226E-003   2.3329913835513369E-003   0.0000000000000000     
   5.7938318737840565E-003   3.6727014560665647E-003   0.0000000000000000     
   7.8689031803453741E-003   5.1278877824081645E-003   0.0000000000000000     
   1.2110590105113915E-002   7.6928071493453255E-003   0.0000000000000000     
   1.4447284853852964E-002   9.1387277751851931E-003   0.0000000000000000     
   1.6736406545465696E-002   1.0604917933363822E-002   0.0000000000000000     
   1.8977955179952117E-002   1.2091377623881218E-002   0.0000000000000000     
   2.1171930757312218E-002   1.3598106846737373E-002   0.0000000000000000     
   1.0666483818234979E-002   6.8760492394001269E-003   0.0000000000000000     
   1.3031105200830607E-002   8.4145943744785671E-003   0.0000000000000000     
   1.5327807409734075E-002   9.9429140849395404E-003   0.0000000000000000     
   1.7556590444945383E-002   1.1461008370783048E-002   0.0000000000000000     
   1.9717454306464523E-002   1.2968877232009091E-002   0.0000000000000000     
   9.4781672351472446E-003   6.1763100415955343E-003   0.0000000000000000     
   1.1811143435260208E-002   7.7569987416384210E-003   0.0000000000000000     
   1.4070664124261310E-002   9.3141216239868395E-003   0.0000000000000000     
   1.6256729302150549E-002   1.0847678688640793E-002   0.0000000000000000     
   1.8369338968927923E-002   1.2357669935600281E-002   0.0000000000000000     
   8.5456403558507067E-003   5.5935895559315468E-003   0.0000000000000000     
   1.0787399557141761E-002   7.1659408766647512E-003   0.0000000000000000     
   1.2964976689047395E-002   8.7185405505057195E-003   0.0000000000000000     
   1.5078371751567612E-002   1.0251388577454451E-002   0.0000000000000000     
   1.7127584744702412E-002   1.1764484957510948E-002   0.0000000000000000     
   7.8689031803453741E-003   5.1278877824081645E-003   0.0000000000000000     
   9.9598735664752688E-003   6.6414207795575629E-003   0.0000000000000000     
   1.2010745104092335E-002   8.1561708644961820E-003   0.0000000000000000     
   1.4021517793196580E-002   9.6721380372240245E-003   0.0000000000000000     
   1.5992191633787997E-002   1.1189322297741087E-002   0.0000000000000000     
   2.1171930757312218E-002   1.3598106846737373E-002   0.0000000000000000     
   2.3326902512262489E-002   1.5130987823010061E-002   0.0000000000000000     
   2.5451439679519395E-002   1.6695902773777051E-002   0.0000000000000000     
   2.7545542259082952E-002   1.8292851699038343E-002   0.0000000000000000     
   2.9609210250953144E-002   1.9921834598793934E-002   0.0000000000000000     
   1.9717454306464523E-002   1.2968877232009091E-002   0.0000000000000000     
   2.1829090302646056E-002   1.4491798931853274E-002   0.0000000000000000     
   2.3910189741844536E-002   1.6055051733551203E-002   0.0000000000000000     
   2.5960752624059964E-002   1.7658635637102876E-002   0.0000000000000000     
   2.7980778949292334E-002   1.9302550642508298E-002   0.0000000000000000     
   1.8369338968927923E-002   1.2357669935600281E-002   0.0000000000000000     
   2.0429945579409470E-002   1.3878254702410818E-002   0.0000000000000000     
   2.2460001588411237E-002   1.5443592326617921E-002   0.0000000000000000     
   2.4459506995933213E-002   1.7053682808221587E-002   0.0000000000000000     
   2.6428461801975407E-002   1.8708526147221821E-002   0.0000000000000000     
   1.7127584744702412E-002   1.1764484957510948E-002   0.0000000000000000     
   1.9129468342552722E-002   1.3290355134682701E-002   0.0000000000000000     
   2.1100875219219491E-002   1.4861524552977210E-002   0.0000000000000000     
   2.3041805374702715E-002   1.6477993212394473E-002   0.0000000000000000     
   2.4952258809002380E-002   1.8139761112934492E-002   0.0000000000000000     
   1.5992191633787997E-002   1.1189322297741087E-002   0.0000000000000000     
   1.7927658592075825E-002   1.2728100228668920E-002   0.0000000000000000     
   1.9832810634269310E-002   1.4308848412629071E-002   0.0000000000000000     
   2.1707647760368445E-002   1.5931566849621534E-002   0.0000000000000000     
   2.3552169970373238E-002   1.7596255539646319E-002   0.0000000000000000     
   2.9609210250953144E-002   1.9921834598793934E-002   0.0000000000000000     
   3.1644374340926554E-002   2.1592057123697866E-002   0.0000000000000000     
   3.3652965214799768E-002   2.3312724924404175E-002   0.0000000000000000     
   3.5634982872572774E-002   2.5083838000912861E-002   0.0000000000000000     
   3.7590427314245577E-002   2.6905396353223924E-002   0.0000000000000000     
   2.7980778949292334E-002   1.9302550642508298E-002   0.0000000000000000     
   2.9971263610247635E-002   2.0989971137959036E-002   0.0000000000000000     
   3.1933201499631858E-002   2.2724071511646664E-002   0.0000000000000000     
   3.3866592617445013E-002   2.4504851763571173E-002   0.0000000000000000     
   3.5771436963687078E-002   2.6332311893732571E-002   0.0000000000000000     
   2.6428461801975407E-002   1.8708526147221821E-002   0.0000000000000000     
   2.8367588217598234E-002   2.0408130535552751E-002   0.0000000000000000     
   3.0277608453862095E-002   2.2152504165148537E-002   0.0000000000000000     
   3.2158522510766993E-002   2.3941647036009157E-002   0.0000000000000000     
   3.4010330388312936E-002   2.5775559148134619E-002   0.0000000000000000     
   2.4952258809002380E-002   1.8139761112934492E-002   0.0000000000000000     
   2.6833348162978346E-002   1.9846535316479015E-002   0.0000000000000000     
   2.8686186077490461E-002   2.1598022884909782E-002   0.0000000000000000     
   3.0510772552538722E-002   2.3394223818226808E-002   0.0000000000000000     
   3.2307107588123128E-002   2.5235138116430078E-002   0.0000000000000000     
   2.3552169970373238E-002   1.7596255539646319E-002   0.0000000000000000     
   2.5368543446387976E-002   1.9305185480737813E-002   0.0000000000000000     
   2.7158934370516967E-002   2.1060627670930414E-002   0.0000000000000000     
   2.8923342742760198E-002   2.2862582110224128E-002   0.0000000000000000     
   3.0661768563117680E-002   2.4711048798618945E-002   0.0000000000000000     
   3.7590427314245577E-002   2.6905396353223924E-002   0.0000000000000000     
   3.9521743205871790E-002   2.8778202702011098E-002   0.0000000000000000     
   4.1431375213505019E-002   3.0703059767948106E-002   0.0000000000000000     
   4.3319323337145277E-002   3.2679967551034951E-002   0.0000000000000000     
   4.5185587576792557E-002   3.4708926051271648E-002   0.0000000000000000     
   3.5771436963687078E-002   2.6332311893732571E-002   0.0000000000000000     
   3.7650850736931779E-002   2.8209542568775212E-002   0.0000000000000000     
   3.9507950135752833E-002   3.0139634455343466E-002   0.0000000000000000     
   4.1342735160150211E-002   3.2122587553437325E-002   0.0000000000000000     
   4.3155205810123949E-002   3.4158401863056798E-002   0.0000000000000000     
   3.4010330388312936E-002   2.5775559148134619E-002   0.0000000000000000     
   3.5836197280656436E-002   2.7658430192493730E-002   0.0000000000000000     
   3.7639288381954038E-002   2.9594449860055296E-002   0.0000000000000000     
   3.9419603692205742E-002   3.1583618150819309E-002   0.0000000000000000     
   4.1177143211411540E-002   3.3625935064785770E-002   0.0000000000000000     
   3.2307107588123128E-002   2.5235138116430078E-002   0.0000000000000000     
   3.4077782837045753E-002   2.7124865573166658E-002   0.0000000000000000     
   3.5825389952108669E-002   2.9067505982083602E-002   0.0000000000000000     
   3.7549928933311862E-002   3.1063059343180908E-002   0.0000000000000000     
   3.9251399780655352E-002   3.3111525656458571E-002   0.0000000000000000     
   3.0661768563117680E-002   2.4711048798618945E-002   0.0000000000000000     
   3.2375607406099738E-002   2.6608848710793991E-002   0.0000000000000000     
   3.4066254846216698E-002   2.8558802821428378E-002   0.0000000000000000     
   3.5733710883468585E-002   3.0560911130522117E-002   0.0000000000000000     
   3.7377975517855370E-002   3.2615173638075201E-002   0.0000000000000000     
   4.5185587576792557E-002   3.4708926051271648E-002   0.0000000000000000     
   4.7030151717362474E-002   3.6790445777213396E-002   0.0000000000000000     
   4.8852999543770648E-002   3.8925037237415416E-002   0.0000000000000000     
   5.0654131056017071E-002   4.1112700431877702E-002   0.0000000000000000     
   5.2433546254101751E-002   4.3353435360600275E-002   0.0000000000000000     
   4.3155205810123949E-002   3.4158401863056798E-002   0.0000000000000000     
   4.4945557420476422E-002   3.6247215627047920E-002   0.0000000000000000     
   4.6713985326010066E-002   3.8389167088256737E-002   0.0000000000000000     
   4.8460489526724874E-002   4.0584256246683242E-002   0.0000000000000000     
   5.0185070022620841E-002   4.2832483102327457E-002   0.0000000000000000     
   4.1177143211411540E-002   3.3625935064785770E-002   0.0000000000000000     
   4.2912292475571795E-002   3.5721506863997950E-002   0.0000000000000000     
   4.4625437020686859E-002   3.7870439810499118E-002   0.0000000000000000     
   4.6316576846756725E-002   4.0072733904289282E-002   0.0000000000000000     
   4.7985711953781415E-002   4.2328389145368420E-002   0.0000000000000000     
   3.9251399780655352E-002   3.3111525656458571E-002   0.0000000000000000     
   4.0930356882648573E-002   3.5213319488063492E-002   0.0000000000000000     
   4.2587354627801007E-002   3.7368855404142580E-002   0.0000000000000000     
   4.4222393016112652E-002   3.9578133404695799E-002   0.0000000000000000     
   4.5835472047583481E-002   4.1841153489723192E-002   0.0000000000000000     
   3.7377975517855370E-002   3.2615173638075201E-002   0.0000000000000000     
   3.8999750641706778E-002   3.4722653499244555E-002   0.0000000000000000     
   4.0599738147352529E-002   3.6884413869187095E-002   0.0000000000000000     
   4.2177938034792611E-002   3.9100454747902830E-002   0.0000000000000000     
   4.3734350304027031E-002   4.1370776135391751E-002   0.0000000000000000     
   5.2433546254101751E-002   4.3353435360600275E-002   0.0000000000000000     
   5.4192966161085050E-002   4.5652098915665823E-002   0.0000000000000000     
   5.5934111800027345E-002   4.8013547989157072E-002   0.0000000000000000     
   5.7656983170928613E-002   5.0437782581074023E-002   0.0000000000000000     
   5.9361580273788885E-002   5.2924802691416653E-002   0.0000000000000000     
   5.0185070022620841E-002   4.2832483102327457E-002   0.0000000000000000     
   5.1888409928285806E-002   4.5137929180458003E-002   0.0000000000000000     
   5.3571192358307596E-002   4.7504676006343546E-002   0.0000000000000000     
   5.5233417312686224E-002   4.9932723579984087E-002   0.0000000000000000     
   5.6875084791421684E-002   5.2422071901379617E-002   0.0000000000000000     
   4.7985711953781415E-002   4.2328389145368420E-002   0.0000000000000000     
   4.9632871127535269E-002   4.4640620835124857E-002   0.0000000000000000     
   5.1258083153792669E-002   4.7012644274946884E-002   0.0000000000000000     
   5.2861348032553580E-002   4.9444459464834500E-002   0.0000000000000000     
   5.4442665763818045E-002   5.1936066404787713E-002   0.0000000000000000     
   4.5835472047583481E-002   4.1841153489723192E-002   0.0000000000000000     
   4.7426349758833461E-002   4.4160173879666392E-002   0.0000000000000000     
   4.8994784186482530E-002   4.6537452794967099E-002   0.0000000000000000     
   5.0540775330530696E-002   4.8972990235625291E-002   0.0000000000000000     
   5.2064323190977958E-002   5.1466786201640968E-002   0.0000000000000000     
   4.3734350304027031E-002   4.1370776135391751E-002   0.0000000000000000     
   4.5268845822180367E-002   4.3696588314082616E-002   0.0000000000000000     
   4.6781295456377221E-002   4.6079101566404185E-002   0.0000000000000000     
   4.8271699206617565E-002   4.8518315892356424E-002   0.0000000000000000     
   4.9740057072901418E-002   5.1014231291939369E-002   0.0000000000000000     
   5.9361580273788885E-002   5.2924802691416653E-002   0.0000000000000000     
   6.1034725510218546E-002   5.5468850447245144E-002   0.0000000000000000     
   6.2663241281828014E-002   5.8064167975619647E-002   0.0000000000000000     
   6.4247127588617267E-002   6.0710755276540150E-002   0.0000000000000000     
   6.5786384430586334E-002   6.3408612350006666E-002   0.0000000000000000     
   5.6875084791421684E-002   5.2422071901379617E-002   0.0000000000000000     
   5.8494459181745714E-002   5.4969033370530405E-002   0.0000000000000000     
   6.0089804870890058E-002   5.7569920387436697E-002   0.0000000000000000     
   6.1661121858854709E-002   6.0224732952098514E-002   0.0000000000000000     
   6.3208410145639674E-002   6.2933471064515842E-002   0.0000000000000000     
   5.4442665763818045E-002   5.1936066404787713E-002   0.0000000000000000     
   5.6007008502898713E-002   5.4485362799136100E-002   0.0000000000000000     
   5.7559348405108283E-002   5.7090246352209252E-002   0.0000000000000000     
   5.9099685470446750E-002   5.9750717064007162E-002   0.0000000000000000     
   6.0628019698914098E-002   6.2466774934529831E-002   0.0000000000000000     
   5.2064323190977958E-002   5.1466786201640968E-002   0.0000000000000000     
   5.3572373473677534E-002   5.4017838733062269E-002   0.0000000000000000     
   5.5071871884482662E-002   5.6625145869937311E-002   0.0000000000000000     
   5.6562818423393349E-002   5.9288707612266109E-002   0.0000000000000000     
   5.8045213090409595E-002   6.2008523960048634E-002   0.0000000000000000     
   4.9740057072901418E-002   5.1014231291939369E-002   0.0000000000000000     
   5.1190554094082179E-002   5.3566461172308892E-002   0.0000000000000000     
   5.2627375309013215E-002   5.6174618940620882E-002   0.0000000000000000     
   5.4050520717694554E-002   5.8838704596875346E-002   0.0000000000000000     
   5.5459990320126162E-002   6.1558718141072277E-002   0.0000000000000000     
   6.5786384430586334E-002   6.3408612350006666E-002   0.0000000000000000     
   6.7298643480177792E-002   6.6150830065545216E-002   0.0000000000000000     
   6.8801536409834219E-002   6.8930499292681829E-002   0.0000000000000000     
   7.0295063219555629E-002   7.1747620031416492E-002   0.0000000000000000     
   7.1779223909342021E-002   7.4602192281749219E-002   0.0000000000000000     
   6.3208410145639674E-002   6.2933471064515842E-002   0.0000000000000000     
   6.4731323098687440E-002   6.5687685062652337E-002   0.0000000000000000     
   6.6229514085440505E-002   6.8478925284471637E-002   0.0000000000000000     
   6.7702983105898853E-002   7.1307191729973768E-002   0.0000000000000000     
   6.9151730160062486E-002   7.4172484399158703E-002   0.0000000000000000     
   6.0628019698914098E-002   6.2466774934529831E-002   0.0000000000000000     
   6.2133947769884193E-002   6.5229398437006980E-002   0.0000000000000000     
   6.3607066362730891E-002   6.8029566044668338E-002   0.0000000000000000     
   6.5047375477454192E-002   7.0867277757513891E-002   0.0000000000000000     
   6.6454875114054068E-002   7.3742533575543653E-002   0.0000000000000000     
   5.8045213090409595E-002   6.2008523960048634E-002   0.0000000000000000     
   5.9506517493768049E-002   6.4775970188609172E-002   0.0000000000000000     
   6.0934193241705396E-002   6.7582421573271906E-002   0.0000000000000000     
   6.2328240334221630E-002   7.0427878114036876E-002   0.0000000000000000     
   6.3688658771316728E-002   7.3312339810904070E-002   0.0000000000000000     
   5.5459990320126162E-002   6.1558718141072277E-002   0.0000000000000000     
   5.6849032270339002E-002   6.4327400317458872E-002   0.0000000000000000     
   5.8210894722364008E-002   6.7137491870282354E-002   0.0000000000000000     
   5.9545577676201160E-002   6.9988992799542710E-002   0.0000000000000000     
   6.0853081131850492E-002   7.2881903105239926E-002   0.0000000000000000     
   7.1779223909342021E-002   7.4602192281749219E-002   0.0000000000000000     
   7.3247518175093451E-002   7.7501437394076347E-002   0.0000000000000000     
   7.4693445712710013E-002   8.0452576718794286E-002   0.0000000000000000     
   7.6117006522191707E-002   8.3455610255903021E-002   0.0000000000000000     
   7.7518200603538506E-002   8.6510538005402524E-002   0.0000000000000000     
   6.9151730160062486E-002   7.4172484399158703E-002   0.0000000000000000     
   7.0577030993486251E-002   7.7081721425395738E-002   0.0000000000000000     
   7.1980161351724983E-002   8.0041820942054129E-002   0.0000000000000000     
   7.3361121234778656E-002   8.3052782949133860E-002   0.0000000000000000     
   7.4719910642647283E-002   8.6114607446634947E-002   0.0000000000000000     
   6.6454875114054068E-002   7.3742533575543653E-002   0.0000000000000000     
   6.7834978960688436E-002   7.6661384764427229E-002   0.0000000000000000     
   6.9193100705515195E-002   7.9629882589834222E-002   0.0000000000000000     
   7.0529240348534319E-002   8.2648027051764619E-002   0.0000000000000000     
   7.1843397889745850E-002   8.5715818150218420E-002   0.0000000000000000     
   6.3688658771316728E-002   7.3312339810904070E-002   0.0000000000000000     
   6.5021362076699993E-002   7.6240427411170847E-002   0.0000000000000000     
   6.6332263774080635E-002   7.9216761662134594E-002   0.0000000000000000     
   6.7621363863458725E-002   8.2241342563795269E-002   0.0000000000000000     
   6.8888662344834220E-002   8.5314170116152888E-002   0.0000000000000000     
   6.0853081131850492E-002   7.2881903105239926E-002   0.0000000000000000     
   6.2136180341520908E-002   7.5818849365626592E-002   0.0000000000000000     
   6.3397650557421359E-002   7.8802458158955216E-002   0.0000000000000000     
   6.4637491779551873E-002   8.1832729485225825E-002   0.0000000000000000     
   6.5855704007912394E-002   8.4909663344438391E-002   0.0000000000000000     
   7.7518200603538506E-002   8.6510538005402524E-002   0.0000000000000000     
   7.8896964225977584E-002   8.9613847703062674E-002   0.0000000000000000     