 <VTKFile type="UnstructuredGrid"  version="0.1"   >
 <UnstructuredGrid>
 <Piece  NumberOfPoints="          1600 "  NumberOfCells="         1024 ">
 <Points>
 <DataArray  type="Float64" NumberOfComponents="3"  format="ascii" >
   0.0000000000000000        0.0000000000000000        0.0000000000000000     
   3.1250000000000000E-002   0.0000000000000000        0.0000000000000000     
   6.2500000000000000E-002   0.0000000000000000        0.0000000000000000     
   9.3750000000000000E-002   0.0000000000000000        0.0000000000000000     
  0.12500000000000000        0.0000000000000000        0.0000000000000000     
   0.0000000000000000        3.1250000000000000E-002   0.0000000000000000     
   3.1250000000000000E-002   3.1250000000000000E-002   0.0000000000000000     
   6.2500000000000000E-002   3.1250000000000000E-002   0.0000000000000000     
   9.3750000000000000E-002   3.1250000000000000E-002   0.0000000000000000     
  0.12500000000000000        3.1250000000000000E-002   0.0000000000000000     
   0.0000000000000000        6.2500000000000000E-002   0.0000000000000000     
   3.1250000000000000E-002   6.2500000000000000E-002   0.0000000000000000     
   6.2500000000000000E-002   6.2500000000000000E-002   0.0000000000000000     
   9.3750000000000000E-002   6.2500000000000000E-002   0.0000000000000000     
  0.12500000000000000        6.2500000000000000E-002   0.0000000000000000     
   0.0000000000000000        9.3750000000000000E-002   0.0000000000000000     
   3.1250000000000000E-002   9.3750000000000000E-002   0.0000000000000000     
   6.2500000000000000E-002   9.3750000000000000E-002   0.0000000000000000     
   9.3750000000000000E-002   9.3750000000000000E-002   0.0000000000000000     
  0.12500000000000000        9.3750000000000000E-002   0.0000000000000000     
   0.0000000000000000       0.12500000000000000        0.0000000000000000     
   3.1250000000000000E-002  0.12500000000000000        0.0000000000000000     
   6.2500000000000000E-002  0.12500000000000000        0.0000000000000000     
   9.3750000000000000E-002  0.12500000000000000        0.0000000000000000     
  0.12500000000000000       0.12500000000000000        0.0000000000000000     
  0.12500000000000000        0.0000000000000000        0.0000000000000000     
  0.15625000000000000        0.0000000000000000        0.0000000000000000     
  0.18750000000000000        0.0000000000000000        0.0000000000000000     
  0.21875000000000000        0.0000000000000000        0.0000000000000000     
  0.25000000000000000        0.0000000000000000        0.0000000000000000     
  0.12500000000000000        3.1250000000000000E-002   0.0000000000000000     
  0.15625000000000000        3.1250000000000000E-002   0.0000000000000000     
  0.18750000000000000        3.1250000000000000E-002   0.0000000000000000     
  0.21875000000000000        3.1250000000000000E-002   0.0000000000000000     
  0.25000000000000000        3.1250000000000000E-002   0.0000000000000000     
  0.12500000000000000        6.2500000000000000E-002   0.0000000000000000     
  0.15625000000000000        6.2500000000000000E-002   0.0000000000000000     
  0.18750000000000000        6.2500000000000000E-002   0.0000000000000000     
  0.21875000000000000        6.2500000000000000E-002   0.0000000000000000     
  0.25000000000000000        6.2500000000000000E-002   0.0000000000000000     
  0.12500000000000000        9.3750000000000000E-002   0.0000000000000000     
  0.15625000000000000        9.3750000000000000E-002   0.0000000000000000     
  0.18750000000000000        9.3750000000000000E-002   0.0000000000000000     
  0.21875000000000000        9.3750000000000000E-002   0.0000000000000000     
  0.25000000000000000        9.3750000000000000E-002   0.0000000000000000     
  0.12500000000000000       0.12500000000000000        0.0000000000000000     
  0.15625000000000000       0.12500000000000000        0.0000000000000000     
  0.18750000000000000       0.12500000000000000        0.0000000000000000     
  0.21875000000000000       0.12500000000000000        0.0000000000000000     
  0.25000000000000000       0.12500000000000000        0.0000000000000000     
  0.25000000000000000        0.0000000000000000        0.0000000000000000     
  0.28125000000000000        0.0000000000000000        0.0000000000000000     
  0.31250000000000000        0.0000000000000000        0.0000000000000000     
  0.34375000000000000        0.0000000000000000        0.0000000000000000     
  0.37500000000000000        0.0000000000000000        0.0000000000000000     
  0.25000000000000000        3.1250000000000000E-002   0.0000000000000000     
  0.28125000000000000        3.1250000000000000E-002   0.0000000000000000     
  0.31250000000000000        3.1250000000000000E-002   0.0000000000000000     
  0.34375000000000000        3.1250000000000000E-002   0.0000000000000000     
  0.37500000000000000        3.1250000000000000E-002   0.0000000000000000     
  0.25000000000000000        6.2500000000000000E-002   0.0000000000000000     
  0.28125000000000000        6.2500000000000000E-002   0.0000000000000000     
  0.31250000000000000        6.2500000000000000E-002   0.0000000000000000     
  0.34375000000000000        6.2500000000000000E-002   0.0000000000000000     
  0.37500000000000000        6.2500000000000000E-002   0.0000000000000000     
  0.25000000000000000        9.3750000000000000E-002   0.0000000000000000     
  0.28125000000000000        9.3750000000000000E-002   0.0000000000000000     
  0.31250000000000000        9.3750000000000000E-002   0.0000000000000000     
  0.34375000000000000        9.3750000000000000E-002   0.0000000000000000     
  0.37500000000000000        9.3750000000000000E-002   0.0000000000000000     
  0.25000000000000000       0.12500000000000000        0.0000000000000000     
  0.28125000000000000       0.12500000000000000        0.0000000000000000     
  0.31250000000000000       0.12500000000000000        0.0000000000000000     
  0.34375000000000000       0.12500000000000000        0.0000000000000000     
  0.37500000000000000       0.12500000000000000        0.0000000000000000     
  0.37500000000000000        0.0000000000000000        0.0000000000000000     
  0.40625000000000000        0.0000000000000000        0.0000000000000000     
  0.43750000000000000        0.0000000000000000        0.0000000000000000     
  0.46875000000000000        0.0000000000000000        0.0000000000000000     
  0.50000000000000000        0.0000000000000000        0.0000000000000000     
  0.37500000000000000        3.1250000000000000E-002   0.0000000000000000     
  0.40625000000000000        3.1250000000000000E-002   0.0000000000000000     
  0.43750000000000000        3.1250000000000000E-002   0.0000000000000000     
  0.46875000000000000        3.1250000000000000E-002   0.0000000000000000     
  0.50000000000000000        3.1250000000000000E-002   0.0000000000000000     
  0.37500000000000000        6.2500000000000000E-002   0.0000000000000000     
  0.40625000000000000        6.2500000000000000E-002   0.0000000000000000     
  0.43750000000000000        6.2500000000000000E-002   0.0000000000000000     
  0.46875000000000000        6.2500000000000000E-002   0.0000000000000000     
  0.50000000000000000        6.2500000000000000E-002   0.0000000000000000     
  0.37500000000000000        9.3750000000000000E-002   0.0000000000000000     
  0.40625000000000000        9.3750000000000000E-002   0.0000000000000000     
  0.43750000000000000        9.3750000000000000E-002   0.0000000000000000     
  0.46875000000000000        9.3750000000000000E-002   0.0000000000000000     
  0.50000000000000000        9.3750000000000000E-002   0.0000000000000000     
  0.37500000000000000       0.12500000000000000        0.0000000000000000     
  0.40625000000000000       0.12500000000000000        0.0000000000000000     
  0.43750000000000000       0.12500000000000000        0.0000000000000000     
  0.46875000000000000       0.12500000000000000        0.0000000000000000     
  0.50000000000000000       0.12500000000000000        0.0000000000000000     
  0.50000000000000000        0.0000000000000000        0.0000000000000000     
  0.53125000000000000        0.0000000000000000        0.0000000000000000     
  0.56250000000000000        0.0000000000000000        0.0000000000000000     
  0.59375000000000000        0.0000000000000000        0.0000000000000000     
  0.62500000000000000        0.0000000000000000        0.0000000000000000     
  0.50000000000000000        3.1250000000000000E-002   0.0000000000000000     
  0.53125000000000000        3.1250000000000000E-002   0.0000000000000000     
  0.56250000000000000        3.1250000000000000E-002   0.0000000000000000     
  0.59375000000000000        3.1250000000000000E-002   0.0000000000000000     
  0.62500000000000000        3.1250000000000000E-002   0.0000000000000000     
  0.50000000000000000        6.2500000000000000E-002   0.0000000000000000     
  0.53125000000000000        6.2500000000000000E-002   0.0000000000000000     
  0.56250000000000000        6.2500000000000000E-002   0.0000000000000000     
  0.59375000000000000        6.2500000000000000E-002   0.0000000000000000     
  0.62500000000000000        6.2500000000000000E-002   0.0000000000000000     
  0.50000000000000000        9.3750000000000000E-002   0.0000000000000000     
  0.53125000000000000        9.3750000000000000E-002   0.0000000000000000     
  0.56250000000000000        9.3750000000000000E-002   0.0000000000000000     
  0.59375000000000000        9.3750000000000000E-002   0.0000000000000000     
  0.62500000000000000        9.3750000000000000E-002   0.0000000000000000     
  0.50000000000000000       0.12500000000000000        0.0000000000000000     
  0.53125000000000000       0.12500000000000000        0.0000000000000000     
  0.56250000000000000       0.12500000000000000        0.0000000000000000     
[...]
 <PointData>
 <DataArray  type="Float64" Name="disp" NumberOfComponents="3" format="ascii">
   0.0000000000000000        0.0000000000000000        0.0000000000000000     
   6.0966654456323204E-003   3.7844974211197020E-003   0.0000000000000000     
   1.1667329278580723E-002   7.3168631407382178E-003   0.0000000000000000     
   1.6711991498845211E-002   1.0597097158855548E-002   0.0000000000000000     
   2.1230652106425777E-002   1.3625199475471691E-002   0.0000000000000000     
   0.0000000000000000        0.0000000000000000        0.0000000000000000     
   4.8913600574896875E-003   3.0185950760248429E-003   0.0000000000000000     
   9.5740863246763369E-003   6.0561363987320510E-003   0.0000000000000000     
   1.4048178801559952E-002   9.1126239681216230E-003   0.0000000000000000     
   1.8313637488140525E-002   1.2188057784193561E-002   0.0000000000000000     
   0.0000000000000000        0.0000000000000000        0.0000000000000000     
   3.9535030792172965E-003   2.4233695320297092E-003   0.0000000000000000     
   7.9105353012688777E-003   5.0604151126607006E-003   0.0000000000000000     
   1.1871096666154744E-002   7.9111367418929750E-003   0.0000000000000000     
   1.5835187173874891E-002   1.0975534419726532E-002   0.0000000000000000     
   0.0000000000000000        0.0000000000000000        0.0000000000000000     
   3.2830945108151487E-003   1.9988207891343006E-003   0.0000000000000000     
   6.6766762083583448E-003   4.3296992825241675E-003   0.0000000000000000     
   1.0180745092629584E-002   6.9926354801696025E-003   0.0000000000000000     
   1.3795301163628872E-002   9.9876293820706005E-003   0.0000000000000000     
   0.0000000000000000        0.0000000000000000        0.0000000000000000     
   2.8801343522832446E-003   1.7449488473386177E-003   0.0000000000000000     
   5.8725090459447364E-003   3.8639889083224525E-003   0.0000000000000000     
   8.9771240809844756E-003   6.3571201829515055E-003   0.0000000000000000     
   1.2193979457402465E-002   9.2243426712257746E-003   0.0000000000000000     
   2.1230652106425777E-002   1.3625199475471691E-002   0.0000000000000000     
   2.5436291169977705E-002   1.6624662981248414E-002   0.0000000000000000     
   2.9541888758156276E-002   1.9818980566847482E-002   0.0000000000000000     
   3.3547444870961479E-002   2.3208152232268894E-002   0.0000000000000000     
   3.7452959508393335E-002   2.6792177977512655E-002   0.0000000000000000     
   1.8313637488140525E-002   1.2188057784193561E-002   0.0000000000000000     
   2.2409415957670754E-002   1.5346761498177430E-002   0.0000000000000000     
   2.6374467783403317E-002   1.8653058761302799E-002   0.0000000000000000     
   3.0208792965338217E-002   2.2106949573569668E-002   0.0000000000000000     
   3.3912391503475456E-002   2.5708433934978035E-002   0.0000000000000000     
   1.5835187173874891E-002   1.0975534419726532E-002   0.0000000000000000     
   1.9732186211487365E-002   1.4210839501936271E-002   0.0000000000000000     
   2.3491473166050207E-002   1.7574283344297094E-002   0.0000000000000000     
   2.7113048037563422E-002   2.1065865946809006E-002   0.0000000000000000     
   3.0596910826027009E-002   2.4685587309471999E-002   0.0000000000000000     
   1.3795301163628872E-002   9.9876293820706005E-003   0.0000000000000000     
   1.7404601931427541E-002   1.3216896992524938E-002   0.0000000000000000     
   2.0892904906096955E-002   1.6582654315830378E-002   0.0000000000000000     
   2.4260210087637096E-002   2.0084901351986911E-002   0.0000000000000000     
   2.7506517476047980E-002   2.3723638100994544E-002   0.0000000000000000     
   1.2193979457402465E-002   9.2243426712257746E-003   0.0000000000000000     
   1.5426663117491295E-002   1.2364933969943427E-002   0.0000000000000000     
   1.8578763003543552E-002   1.5678171675902630E-002   0.0000000000000000     
   2.1650279115559248E-002   1.9164055789103379E-002   0.0000000000000000     
   2.4641211453538370E-002   2.2822586309545673E-002   0.0000000000000000     
   3.7452959508393335E-002   2.6792177977512655E-002   0.0000000000000000     
   4.1264080245242710E-002   3.0580112631454028E-002   0.0000000000000000     
   4.4986454656300509E-002   3.4581011022968282E-002   0.0000000000000000     
   4.8620082741566741E-002   3.8794873152055431E-002   0.0000000000000000     
   5.2164964501041404E-002   4.3221699018715462E-002   0.0000000000000000     
   3.3912391503475456E-002   2.5708433934978035E-002   0.0000000000000000     
   3.7504722149350689E-002   2.9493839467376617E-002   0.0000000000000000     
   4.1005243654499569E-002   3.3499493792614139E-002   0.0000000000000000     
   4.4413956018922077E-002   3.7725396910690601E-002   0.0000000000000000     
   4.7730859242618245E-002   4.2171548821605995E-002   0.0000000000000000     
   3.0596910826027009E-002   2.4685587309471999E-002   0.0000000000000000     
   3.3965675086716711E-002   2.8480521104011589E-002   0.0000000000000000     
   3.7241954374908272E-002   3.2497741002153267E-002   0.0000000000000000     
   4.0425748690601705E-002   3.6737247003897050E-002   0.0000000000000000     
   4.3517058033796990E-002   4.1199039109242927E-002   0.0000000000000000     
   2.7506517476047980E-002   2.3723638100994544E-002   0.0000000000000000     
   3.0646939057340766E-002   2.7540157541358915E-002   0.0000000000000000     
   3.3696586817526644E-002   3.1575752651585659E-002   0.0000000000000000     
   3.6655460756605591E-002   3.5830423431674772E-002   0.0000000000000000     
   3.9523560874577653E-002   4.0304169881626259E-002   0.0000000000000000     
   2.4641211453538370E-002   2.2822586309545673E-002   0.0000000000000000     
   2.7548514061222870E-002   2.6672748779418620E-002   0.0000000000000000     
   3.0369140982354669E-002   3.0733528740911314E-002   0.0000000000000000     
   3.3103092216933784E-002   3.5004926194023768E-002   0.0000000000000000     
   3.5750367764960198E-002   3.9486941138755956E-002   0.0000000000000000     
   5.2164964501041404E-002   4.3221699018715462E-002   0.0000000000000000     
   5.5618194230858571E-002   4.7849786773856581E-002   0.0000000000000000     
   5.8976866227152328E-002   5.2667434568387017E-002   0.0000000000000000     
   6.2240980489922687E-002   5.7674642402306769E-002   0.0000000000000000     
   6.5410537019169629E-002   6.2871410275615811E-002   0.0000000000000000     
   4.7730859242618245E-002   4.2171548821605995E-002   0.0000000000000000     
   5.0971492904058453E-002   4.6827483240469793E-002   0.0000000000000000     
   5.4151396581713120E-002   5.1682733882391439E-002   0.0000000000000000     
   5.7270570275582224E-002   5.6737300747370926E-002   0.0000000000000000     
   6.0329013985665772E-002   6.1991183835408276E-002   0.0000000000000000     
   4.3517058033796990E-002   4.1199039109242927E-002   0.0000000000000000     
   4.6543292411320575E-002   4.5875995838386939E-002   0.0000000000000000     
   4.9531861829998844E-002   5.0760995711525092E-002   0.0000000000000000     
   5.2482766289831825E-002   5.5854038728657400E-002   0.0000000000000000     
   5.5396005790819498E-002   6.1155124889783863E-002   0.0000000000000000     
   3.9523560874577653E-002   4.0304169881626259E-002   0.0000000000000000     
   4.2333592752644908E-002   4.4995324567608026E-002   0.0000000000000000     
   4.5118261972009514E-002   4.9902220055787996E-002   0.0000000000000000     
   4.7877568532671493E-002   5.5024856346166176E-002   0.0000000000000000     
   5.0611512434630815E-002   6.0363233438742551E-002   0.0000000000000000     
   3.5750367764960198E-002   3.9486941138755956E-002   0.0000000000000000     
   3.8342393928031474E-002   4.4185469428133041E-002   0.0000000000000000     
   4.0910597007745152E-002   4.9106406915180145E-002   0.0000000000000000     
   4.3454977004101225E-002   5.4249753599897248E-002   0.0000000000000000     
   4.5975533917099701E-002   5.9615509482284369E-002   0.0000000000000000     
   6.5410537019169629E-002   6.2871410275615811E-002   0.0000000000000000     
   6.8378899524235912E-002   6.8175230475384582E-002   0.0000000000000000     
   7.1039431714464238E-002   7.3503595288683485E-002   0.0000000000000000     
   7.3392133589854622E-002   7.8856504715512532E-002   0.0000000000000000     
   7.5437005150407063E-002   8.4233958755871696E-002   0.0000000000000000     
   6.0329013985665772E-002   6.1991183835408276E-002   0.0000000000000000     
   6.3189358198766699E-002   6.7357216074846668E-002   0.0000000000000000     
   6.5714233401687888E-002   7.2748230394029320E-002   0.0000000000000000     
   6.7903639594429369E-002   7.8164226792956190E-002   0.0000000000000000     
   6.9757576776991126E-002   8.3605205271627320E-002   0.0000000000000000     
   5.5396005790819498E-002   6.1155124889783863E-002   0.0000000000000000     
   5.8117587968740406E-002   6.6574274227163138E-002   0.0000000000000000     
   6.0493520459373028E-002   7.2021506773053939E-002   0.0000000000000000     
   6.2523803262717406E-002   7.7496822527456252E-002   0.0000000000000000     
   6.4208436378773492E-002   8.3000221490370063E-002   0.0000000000000000     
   5.0611512434630815E-002   6.0363233438742551E-002   0.0000000000000000     
   5.3163588834157012E-002   6.5826404932334007E-002   0.0000000000000000     
   5.5377292887519636E-002   7.1323424425757412E-002   0.0000000000000000     
   5.7252624594718679E-002   7.6854291919012732E-002   0.0000000000000000     
   5.8789583955754135E-002   8.2419007412099982E-002   0.0000000000000000     
   4.5975533917099701E-002   5.9615509482284369E-002   0.0000000000000000     
   4.8327360795016545E-002   6.5113608190359273E-002   0.0000000000000000     
   5.0365550686127726E-002   7.0653983352139668E-002   0.0000000000000000     
   5.2090103590433229E-002   7.6236634967625616E-002   0.0000000000000000     
   5.3501019507933074E-002   8.1861563036817048E-002   0.0000000000000000     
   7.5437005150407063E-002   8.4233958755871696E-002   0.0000000000000000     
   7.7454213055231216E-002   8.9875939706216990E-002   0.0000000000000000     
   7.9723923963436735E-002   9.6022429863004452E-002   0.0000000000000000     
   8.2246137875023620E-002  0.10267342922623406        0.0000000000000000     
   8.5020854789991857E-002  0.10982893779590581        0.0000000000000000     
   6.9757576776991126E-002   8.3605205271627320E-002   0.0000000000000000     
   7.1539609556203115E-002   8.9283655635039261E-002   0.0000000000000000     
   7.3513302538895292E-002   9.5412067688188662E-002   0.0000000000000000     
   7.5678655725067656E-002  0.10199044143107551        0.0000000000000000     
   7.8035669114720221E-002  0.10901877686369976        0.0000000000000000     
   6.4208436378773492E-002   8.3000221490370063E-002   0.0000000000000000     
   6.5793901358676868E-002   8.8715656208555871E-002   0.0000000000000000     
   6.7526679753563121E-002   9.4827079228774105E-002   0.0000000000000000     
   6.9406771563432224E-002  0.10133449055102481        0.0000000000000000     
   7.1434176788284204E-002  0.10823789017530797        0.0000000000000000     
   5.8789583955754135E-002   8.2419007412099982E-002   0.0000000000000000     
   6.0217088462652488E-002   8.8171941426766792E-002   0.0000000000000000     
   6.1764055607440208E-002   9.4267464484760810E-002   0.0000000000000000     
   6.3430485390117322E-002  0.10070557658608201        0.0000000000000000     
   6.5216377810683804E-002  0.10748627773073034        0.0000000000000000     
   5.3501019507933074E-002   8.1861563036817048E-002   0.0000000000000000     
   5.4809170868129954E-002   8.7652511289672080E-002   0.0000000000000000     
   5.6225430100526573E-002   9.3733223456148720E-002   0.0000000000000000     
   5.7749797205122931E-002  0.10010369953624702        0.0000000000000000     
   5.9382272181919042E-002  0.10676393952996698        0.0000000000000000     
   8.5020854789991857E-002  0.10982893779590581        0.0000000000000000     
   8.8084183038253716E-002  0.11745562045157501        0.0000000000000000     
   9.1472230949721414E-002  0.12552014207279694        0.0000000000000000     
   9.5184998524394965E-002  0.13402250265957158        0.0000000000000000     
   9.9222485762274382E-002  0.14296270221189894        0.0000000000000000     
   7.8035669114720221E-002  0.10901877686369976        0.0000000000000000     
   8.0700812885381432E-002  0.11650774349483330        0.0000000000000000     
   8.3790557214579772E-002  0.12446801083324792        0.0000000000000000     
   8.7304902102315271E-002  0.13289957887894363        0.0000000000000000     
   9.1243847548587886E-002  0.14180244763192040        0.0000000000000000     
   7.1434176788284204E-002  0.10823789017530797        0.0000000000000000     
   7.3775958306039446E-002  0.11560009055230883        0.0000000000000000     
   7.6599178994618433E-002  0.12348390413271276        0.0000000000000000     
   7.9903838854021123E-002  0.13188933091651978        0.0000000000000000     
   8.3689937884247542E-002  0.14081637090372978        0.0000000000000000     
   6.5216377810683804E-002  0.10748627773073034        0.0000000000000000     
   6.7309619300227788E-002  0.11473266162400160        0.0000000000000000     
   6.9898096289837355E-002  0.12256782197119150        0.0000000000000000     
   7.2981808779512561E-002  0.13099175877229999        0.0000000000000000     
   7.6560756769253321E-002  0.14000447202732710        0.0000000000000000     
   5.9382272181919042E-002  0.10676393952996698        0.0000000000000000     
   6.1301795867946415E-002  0.11390545670991163        0.0000000000000000     
   6.3687309100236580E-002  0.12171976434868409        0.0000000000000000     
   6.6538811878789517E-002  0.13020686244628432        0.0000000000000000     
   6.9856304203605252E-002  0.13936675100271240        0.0000000000000000     
   9.9222485762274382E-002  0.14296270221189894        0.0000000000000000     
  0.10295629094027986       0.15183551063597323        0.0000000000000000     
  0.10575801233533166       0.16013569783798862        0.0000000000000000     
  0.10762764994742975       0.16786326381794500        0.0000000000000000     
  0.10856520377657417       0.17501820857584255        0.0000000000000000     
   9.1243847548587886E-002  0.14180244763192040        0.0000000000000000     
   9.4964005322351316E-002  0.15072957463592396        0.0000000000000000     
   9.7821987192559218E-002  0.15923391743469992        0.0000000000000000     
   9.9817793159211562E-002  0.16731547602824837        0.0000000000000000     
  0.10095142322230845       0.17497425041656922        0.0000000000000000     
   8.3689937884247542E-002  0.14081637090372978        0.0000000000000000     
   8.7316080555362496E-002  0.14983114834310235        0.0000000000000000     
   9.0140871337430831E-002  0.15849978748339702        0.0000000000000000     
   9.2164310230452545E-002  0.16682228832461374        0.0000000000000000     
   9.3386397234427626E-002  0.17479865086675250        0.0000000000000000     
   7.6560756769253321E-002  0.14000447202732710        0.0000000000000000     
   8.0012516639313414E-002  0.14914023175750848        0.0000000000000000     
   8.2714664769946489E-002  0.15793330798407984        0.0000000000000000     
   8.4667201161152603E-002  0.16638370070704106        0.0000000000000000     
   8.5870125812931672E-002  0.17449140992639228        0.0000000000000000     
   6.9856304203605252E-002  0.13936675100271240        0.0000000000000000     
   7.3053313574204068E-002  0.14865682487914234        0.0000000000000000     
   7.5543367490106220E-002  0.15753447893674838        0.0000000000000000     
   7.7326465951311762E-002  0.16599971317553044        0.0000000000000000     
   7.8402608957820655E-002  0.17405252759548862        0.0000000000000000     
   0.0000000000000000        0.0000000000000000        0.0000000000000000     
   2.8801343522832446E-003   1.7449488473386177E-003   0.0000000000000000     
   5.8725090459447364E-003   3.8639889083224525E-003   0.0000000000000000     
   8.9771240809844756E-003   6.3571201829515055E-003   0.0000000000000000     
   1.2193979457402465E-002   9.2243426712257746E-003   0.0000000000000000     
   0.0000000000000000        0.0000000000000000        0.0000000000000000     
   2.6106085817496792E-003   1.5893455102986604E-003   0.0000000000000000     
   5.2897962875425725E-003   3.5563107722208606E-003   0.0000000000000000     
   8.0375631173786755E-003   5.9008957857666000E-003   0.0000000000000000     
   1.0853909071257993E-002   8.6231005509358784E-003   0.0000000000000000     
   0.0000000000000000        0.0000000000000000        0.0000000000000000     
   2.3405031773425524E-003   1.4596025816704292E-003   0.0000000000000000     
   4.7203004066663640E-003   3.2996916563846970E-003   0.0000000000000000     
   7.1393916879714352E-003   5.5202672241428021E-003   0.0000000000000000     
   9.5977770212577630E-003   8.1213292849447467E-003   0.0000000000000000     
   0.0000000000000000        0.0000000000000000        0.0000000000000000     
   2.0698181390618642E-003   1.3557200614539243E-003   0.0000000000000000     
   4.1640214033161153E-003   3.0941315608139612E-003   0.0000000000000000     
   6.2826097927627528E-003   5.2152344980801119E-003   0.0000000000000000     
   8.4255833074017780E-003   7.7190288732523734E-003   0.0000000000000000     
   0.0000000000000000        0.0000000000000000        0.0000000000000000     
   1.7985534669076133E-003   1.2776979496491453E-003   0.0000000000000000     
   3.6209592774918238E-003   2.9396304855086545E-003   0.0000000000000000     
   5.4672174317526318E-003   4.9857976075785276E-003   0.0000000000000000     
   7.3373279296900370E-003   7.4161993158587645E-003   0.0000000000000000     
   1.2193979457402465E-002   9.2243426712257746E-003   0.0000000000000000     
   1.5426663117491295E-002   1.2364933969943427E-002   0.0000000000000000     
   1.8578763003543552E-002   1.5678171675902630E-002   0.0000000000000000     
   2.1650279115559248E-002   1.9164055789103379E-002   0.0000000000000000     
   2.4641211453538370E-002   2.2822586309545673E-002   0.0000000000000000     
   1.0853909071257993E-002   8.6231005509358784E-003   0.0000000000000000     
   1.3686701375170871E-002   1.1642694381245697E-002   0.0000000000000000     
   1.6483807255107660E-002   1.4879446590213057E-002   0.0000000000000000     
   1.9245226711068358E-002   1.8333357177837958E-002   0.0000000000000000     
   2.1970959743052972E-002   2.2004426144120393E-002   0.0000000000000000     
   9.5977770212577630E-003   8.1213292849447467E-003   0.0000000000000000     
   1.2073048309958530E-002   1.1037922173485704E-002   0.0000000000000000     
   1.4542797457506919E-002   1.4205090224460853E-002   0.0000000000000000     
   1.7007024463902929E-002   1.7622833437870192E-002   0.0000000000000000     
   1.9465729329146562E-002   2.1291151813713719E-002   0.0000000000000000     
   8.4255833074017780E-003   7.7190288732523734E-003   0.0000000000000000     
   1.0585703921854277E-002   1.0550617346663443E-002   0.0000000000000000     
   1.2755733610741338E-002   1.3655102578646012E-002   0.0000000000000000     
   1.4935672374062960E-002   1.7032484569200080E-002   0.0000000000000000     
   1.7125520211819147E-002   2.0682763318325650E-002   0.0000000000000000     
   7.3373279296900370E-003   7.4161993158587645E-003   0.0000000000000000     
   9.2246682108581071E-003   1.0180779900778918E-002   0.0000000000000000     
   1.1122615714810911E-002   1.3229483652768539E-002   0.0000000000000000     
   1.3031170441548450E-002   1.6562310571827627E-002   0.0000000000000000     
   1.4950332391070719E-002   2.0179260657956187E-002   0.0000000000000000     
   2.4641211453538370E-002   2.2822586309545673E-002   0.0000000000000000     
   2.7548514061222870E-002   2.6672748779418620E-002   0.0000000000000000     