 <VTKFile type="UnstructuredGrid"  version="0.1"   >
 <UnstructuredGrid>
 <Piece  NumberOfPoints="           400 "  NumberOfCells="          256 ">
 <Points>
 <DataArray  type="Float64" NumberOfComponents="3"  format="ascii" >
   0.0000000000000000        0.0000000000000000        0.0000000000000000     
   6.2500000000000000E-002   0.0000000000000000        0.0000000000000000     
  0.12500000000000000        0.0000000000000000        0.0000000000000000     
  0.18750000000000000        0.0000000000000000        0.0000000000000000     
  0.25000000000000000        0.0000000000000000        0.0000000000000000     
   0.0000000000000000        6.2500000000000000E-002   0.0000000000000000     
   6.2500000000000000E-002   6.2500000000000000E-002   0.0000000000000000     
  0.12500000000000000        6.2500000000000000E-002   0.0000000000000000     
  0.18750000000000000        6.2500000000000000E-002   0.0000000000000000     
  0.25000000000000000        6.2500000000000000E-002   0.0000000000000000     
   0.0000000000000000       0.12500000000000000        0.0000000000000000     
   6.2500000000000000E-002  0.12500000000000000        0.0000000000000000     
  0.12500000000000000       0.12500000000000000        0.0000000000000000     
  0.18750000000000000       0.12500000000000000        0.0000000000000000     
  0.25000000000000000       0.12500000000000000        0.0000000000000000     
   0.0000000000000000       0.18750000000000000        0.0000000000000000     
   6.2500000000000000E-002  0.18750000000000000        0.0000000000000000     
  0.12500000000000000       0.18750000000000000        0.0000000000000000     
  0.18750000000000000       0.18750000000000000        0.0000000000000000     
  0.25000000000000000       0.18750000000000000        0.0000000000000000     
   0.0000000000000000       0.25000000000000000        0.0000000000000000     
   6.2500000000000000E-002  0.25000000000000000        0.0000000000000000     
  0.12500000000000000       0.25000000000000000        0.0000000000000000     
  0.18750000000000000       0.25000000000000000        0.0000000000000000     
  0.25000000000000000       0.25000000000000000        0.0000000000000000     
  0.25000000000000000        0.0000000000000000        0.0000000000000000     
  0.31250000000000000        0.0000000000000000        0.0000000000000000     
  0.37500000000000000        0.0000000000000000        0.0000000000000000     
  0.43750000000000000        0.0000000000000000        0.0000000000000000     
  0.50000000000000000        0.0000000000000000        0.0000000000000000     
  0.25000000000000000        6.2500000000000000E-002   0.0000000000000000     
  0.31250000000000000        6.2500000000000000E-002   0.0000000000000000     
  0.37500000000000000        6.2500000000000000E-002   0.0000000000000000     
  0.43750000000000000        6.2500000000000000E-002   0.0000000000000000     
  0.50000000000000000        6.2500000000000000E-002   0.0000000000000000     
  0.25000000000000000       0.12500000000000000        0.0000000000000000     
  0.31250000000000000       0.12500000000000000        0.0000000000000000     
  0.37500000000000000       0.12500000000000000        0.0000000000000000     
  0.43750000000000000       0.12500000000000000        0.0000000000000000     
  0.50000000000000000       0.12500000000000000        0.0000000000000000     
  0.25000000000000000       0.18750000000000000        0.0000000000000000     
  0.31250000000000000       0.18750000000000000        0.0000000000000000     
  0.37500000000000000       0.18750000000000000        0.0000000000000000     
  0.43750000000000000       0.18750000000000000        0.0000000000000000     
  0.50000000000000000       0.18750000000000000        0.0000000000000000     
  0.25000000000000000       0.25000000000000000        0.0000000000000000     
  0.31250000000000000       0.25000000000000000        0.0000000000000000     
  0.37500000000000000       0.25000000000000000        0.0000000000000000     
  0.43750000000000000       0.25000000000000000        0.0000000000000000     
  0.50000000000000000       0.25000000000000000        0.0000000000000000     
  0.50000000000000000        0.0000000000000000        0.0000000000000000     
  0.56250000000000000        0.0000000000000000        0.0000000000000000     
  0.62500000000000000        0.0000000000000000        0.0000000000000000     
  0.68750000000000000        0.0000000000000000        0.0000000000000000     
  0.75000000000000000        0.0000000000000000        0.0000000000000000     
  0.50000000000000000        6.2500000000000000E-002   0.0000000000000000     
  0.56250000000000000        6.2500000000000000E-002   0.0000000000000000     
  0.62500000000000000        6.2500000000000000E-002   0.0000000000000000     
  0.68750000000000000        6.2500000000000000E-002   0.0000000000000000     
  0.75000000000000000        6.2500000000000000E-002   0.0000000000000000     
  0.50000000000000000       0.12500000000000000        0.0000000000000000     
  0.56250000000000000       0.12500000000000000        0.0000000000000000     
  0.62500000000000000       0.12500000000000000        0.0000000000000000     
  0.68750000000000000       0.12500000000000000        0.0000000000000000     
  0.75000000000000000       0.12500000000000000        0.0000000000000000     
  0.50000000000000000       0.18750000000000000        0.0000000000000000     
  0.56250000000000000       0.18750000000000000        0.0000000000000000     
  0.62500000000000000       0.18750000000000000        0.0000000000000000     
  0.68750000000000000       0.18750000000000000        0.0000000000000000     
  0.75000000000000000       0.18750000000000000        0.0000000000000000     
  0.50000000000000000       0.25000000000000000        0.0000000000000000     
  0.56250000000000000       0.25000000000000000        0.0000000000000000     
  0.62500000000000000       0.25000000000000000        0.0000000000000000     
  0.68750000000000000       0.25000000000000000        0.0000000000000000     
  0.75000000000000000       0.25000000000000000        0.0000000000000000     
  0.75000000000000000        0.0000000000000000        0.0000000000000000     
  0.81250000000000000        0.0000000000000000        0.0000000000000000     
  0.87500000000000000        0.0000000000000000        0.0000000000000000     
  0.93750000000000000        0.0000000000000000        0.0000000000000000     
   1.0000000000000000        0.0000000000000000        0.0000000000000000     
  0.75000000000000000        6.2500000000000000E-002   0.0000000000000000     
  0.81250000000000000        6.2500000000000000E-002   0.0000000000000000     
  0.87500000000000000        6.2500000000000000E-002   0.0000000000000000     
  0.93750000000000000        6.2500000000000000E-002   0.0000000000000000     
   1.0000000000000000        6.2500000000000000E-002   0.0000000000000000     
  0.75000000000000000       0.12500000000000000        0.0000000000000000     
  0.81250000000000000       0.12500000000000000        0.0000000000000000     
  0.87500000000000000       0.12500000000000000        0.0000000000000000     
  0.93750000000000000       0.12500000000000000        0.0000000000000000     
   1.0000000000000000       0.12500000000000000        0.0000000000000000     
  0.75000000000000000       0.18750000000000000        0.0000000000000000     
  0.81250000000000000       0.18750000000000000        0.0000000000000000     
  0.87500000000000000       0.18750000000000000        0.0000000000000000     
  0.93750000000000000       0.18750000000000000        0.0000000000000000     
   1.0000000000000000       0.18750000000000000        0.0000000000000000     
  0.75000000000000000       0.25000000000000000        0.0000000000000000     
  0.81250000000000000       0.25000000000000000        0.0000000000000000     
  0.87500000000000000       0.25000000000000000        0.0000000000000000     
  0.93750000000000000       0.25000000000000000        0.0000000000000000     
   1.0000000000000000       0.25000000000000000        0.0000000000000000     
   0.0000000000000000       0.25000000000000000        0.0000000000000000     
   6.2500000000000000E-002  0.25000000000000000        0.0000000000000000     
  0.12500000000000000       0.25000000000000000        0.0000000000000000     
  0.18750000000000000       0.25000000000000000        0.0000000000000000     
  0.25000000000000000       0.25000000000000000        0.0000000000000000     
   0.0000000000000000       0.31250000000000000        0.0000000000000000     
   6.2500000000000000E-002  0.31250000000000000        0.0000000000000000     
  0.12500000000000000       0.31250000000000000        0.0000000000000000     
  0.18750000000000000       0.31250000000000000        0.0000000000000000     
  0.25000000000000000       0.31250000000000000        0.0000000000000000     
   0.0000000000000000       0.37500000000000000        0.0000000000000000     
   6.2500000000000000E-002  0.37500000000000000        0.0000000000000000     
  0.12500000000000000       0.37500000000000000        0.0000000000000000     
  0.18750000000000000       0.37500000000000000        0.0000000000000000     
  0.25000000000000000       0.37500000000000000        0.0000000000000000     
   0.0000000000000000       0.43750000000000000        0.0000000000000000     
   6.2500000000000000E-002  0.43750000000000000        0.0000000000000000     
  0.12500000000000000       0.43750000000000000        0.0000000000000000     
  0.18750000000000000       0.43750000000000000        0.0000000000000000     
  0.25000000000000000       0.43750000000000000        0.0000000000000000     
   0.0000000000000000       0.50000000000000000        0.0000000000000000     
   6.2500000000000000E-002  0.50000000000000000        0.0000000000000000     
  0.12500000000000000       0.50000000000000000        0.0000000000000000     
[...]
 <PointData>
 <DataArray  type="Float64" Name="disp" NumberOfComponents="3" format="ascii">
   0.0000000000000000        0.0000000000000000        0.0000000000000000     
   1.0688880202429987E-002   6.3749250392653861E-003   0.0000000000000000     
   2.0497851347310442E-002   1.2964809175578358E-002   0.0000000000000000     
   2.9426913434641370E-002   1.9769652408938916E-002   0.0000000000000000     
   3.7476066464422766E-002   2.6789454739347057E-002   0.0000000000000000     
   0.0000000000000000        0.0000000000000000        0.0000000000000000     
   8.1733601241161889E-003   5.0329974852101993E-003   0.0000000000000000     
   1.5978282777584674E-002   1.0769950647491804E-002   0.0000000000000000     
   2.3414767960405453E-002   1.7210859486844809E-002   0.0000000000000000     
   3.0482815672578524E-002   2.4355724003269220E-002   0.0000000000000000     
   0.0000000000000000        0.0000000000000000        0.0000000000000000     
   6.1367880234553356E-003   4.0155757597762293E-003   0.0000000000000000     
   1.2243527387502978E-002   9.0854659339228289E-003   0.0000000000000000     
   1.8320218092142935E-002   1.5209670522439798E-002   0.0000000000000000     
   2.4366860137375195E-002   2.2388189525327139E-002   0.0000000000000000     
   0.0000000000000000        0.0000000000000000        0.0000000000000000     
   4.5791639004474282E-003   3.3226598629634762E-003   0.0000000000000000     
   9.2935851770653659E-003   7.9113550348714357E-003   0.0000000000000000     
   1.4143263829853814E-002   1.3766085515723878E-002   0.0000000000000000     
   1.9128199858812776E-002   2.0886851305520805E-002   0.0000000000000000     
   0.0000000000000000        0.0000000000000000        0.0000000000000000     
   3.5004877550924639E-003   2.9542497947719400E-003   0.0000000000000000     
   7.1284561462718297E-003   7.2476179503376233E-003   0.0000000000000000     
   1.0883905173538096E-002   1.2880104466697049E-002   0.0000000000000000     
   1.4766834836891268E-002   1.9851709343850221E-002   0.0000000000000000     
   3.7476066464422766E-002   2.6789454739347057E-002   0.0000000000000000     
   4.4916173872160139E-002   3.4365023293535413E-002   0.0000000000000000     
   5.2018099093358999E-002   4.2837165198236632E-002   0.0000000000000000     
   5.8781842128019360E-002   5.2205880453450683E-002   0.0000000000000000     
   6.5207402976141207E-002   6.2471169059177600E-002   0.0000000000000000     
   3.0482815672578524E-002   2.4355724003269220E-002   0.0000000000000000     
   3.7181412056171641E-002   3.2254756833537644E-002   0.0000000000000000     
   4.3509543253252549E-002   4.0958170614422695E-002   0.0000000000000000     
   4.9467209263821248E-002   5.0465965345924374E-002   0.0000000000000000     
   5.5054410087877745E-002   6.0778141028042666E-002   0.0000000000000000     
   2.4366860137375195E-002   2.2388189525327139E-002   0.0000000000000000     
   3.0218915405355047E-002   3.0473854240997262E-002   0.0000000000000000     
   3.5711845778237779E-002   3.9319495967862592E-002   0.0000000000000000     
   4.0845651256023387E-002   4.8925114705923131E-002   0.0000000000000000     
   4.5620331838711878E-002   5.9290710455178877E-002   0.0000000000000000     
   1.9128199858812776E-002   2.0886851305520805E-002   0.0000000000000000     
   2.4028683919710365E-002   2.9022315515914266E-002   0.0000000000000000     
   2.8625006668314711E-002   3.7921141258556314E-002   0.0000000000000000     
   3.2917168104625791E-002   4.7583328533446975E-002   0.0000000000000000     
   3.6905168228643620E-002   5.8008877340586212E-002   0.0000000000000000     
   1.4766834836891268E-002   1.9851709343850221E-002   0.0000000000000000     
   1.8610717599237592E-002   2.7900140658288653E-002   0.0000000000000000     
   2.2249025923483309E-002   3.6763106486503876E-002   0.0000000000000000     
   2.5681759809628439E-002   4.6440606828495878E-002   0.0000000000000000     
   2.8908919257672968E-002   5.6932641684264693E-002   0.0000000000000000     
   6.5207402976141207E-002   6.2471169059177600E-002   0.0000000000000000     
   7.1280639716789648E-002   7.3500605382846876E-002   0.0000000000000000     
   7.6987410429029776E-002   8.5161763791888029E-002   0.0000000000000000     
   8.2327715112861619E-002   9.7454644286301031E-002   0.0000000000000000     
   8.7301553768285134E-002  0.11037924686608591        0.0000000000000000     
   5.5054410087877745E-002   6.0778141028042666E-002   0.0000000000000000     
   6.0303266254442114E-002   7.1831622406353601E-002   0.0000000000000000     
   6.5245898292534465E-002   8.3563334226433209E-002   0.0000000000000000     
   6.9882306202154812E-002   9.5973276488281481E-002   0.0000000000000000     
   7.4212489983303126E-002  0.10906144919189842        0.0000000000000000     
   4.5620331838711878E-002   5.9290710455178877E-002   0.0000000000000000     
   5.0086990892005044E-002   7.0389337596188678E-002   0.0000000000000000     
   5.4296731781604698E-002   8.2194050509511382E-002   0.0000000000000000     
   5.8249554507510834E-002   9.4704849195147031E-002   0.0000000000000000     
   6.1945459069723458E-002  0.10792173365309563        0.0000000000000000     
   3.6905168228643620E-002   5.8008877340586212E-002   0.0000000000000000     
   4.0631813629478424E-002   6.9173750952352078E-002   0.0000000000000000     
   4.4139910896240461E-002   8.1053912641122577E-002   0.0000000000000000     
   4.7429460028929699E-002   9.3649362406897724E-002   0.0000000000000000     
   5.0500461027546149E-002  0.10696010024967753        0.0000000000000000     
   2.8908919257672968E-002   5.6932641684264693E-002   0.0000000000000000     
   3.1937734466862280E-002   6.8184862474843788E-002   0.0000000000000000     
   3.4775435636441754E-002   8.0142920621266739E-002   0.0000000000000000     
   3.7422022766411399E-002   9.2806816123533517E-002   0.0000000000000000     
   3.9877495856771202E-002  0.10617654898164414        0.0000000000000000     
   8.7301553768285134E-002  0.11037924686608591        0.0000000000000000     
   9.1893809568207752E-002  0.12389449226190768        0.0000000000000000     
   9.6089365685536832E-002  0.13795930120443134        0.0000000000000000     
   9.9888222120272388E-002  0.15257367369365690        0.0000000000000000     
  0.10329037887241441       0.16773760972958435        0.0000000000000000     
   7.4212489983303126E-002  0.10906144919189842        0.0000000000000000     
   7.8187838008662164E-002  0.12273753763791152        0.0000000000000000     
   8.1759738650914696E-002  0.13691122712694831        0.0000000000000000     
   8.4928191910060680E-002  0.15158251765900882        0.0000000000000000     
   8.7693197786100172E-002  0.16675140923409293        0.0000000000000000     
   6.1945459069723458E-002  0.10792173365309563        0.0000000000000000     
   6.5324520831570324E-002  0.12172501630183226        0.0000000000000000     
   6.8326815156379256E-002  0.13599500955983213        0.0000000000000000     
   7.0952342044150185E-002  0.15073171342709518        0.0000000000000000     
   7.3201101494883125E-002  0.16593512790362144        0.0000000000000000     
   5.0500461027546149E-002  0.10696010024967753        0.0000000000000000     
   5.3303858036932265E-002  0.12085692825366989        0.0000000000000000     
   5.5790595201930478E-002  0.13521064850308273        0.0000000000000000     
   5.7960672522540835E-002  0.15002126099791602        0.0000000000000000     
   5.9814089998763274E-002  0.16528876573816981        0.0000000000000000     
   3.9877495856771202E-002  0.10617654898164414        0.0000000000000000     
   4.2125849624747955E-002  0.12013327349342440        0.0000000000000000     
   4.4151078787568444E-002  0.13455814395670015        0.0000000000000000     
   4.5953183345232670E-002  0.14945116037147138        0.0000000000000000     
   4.7532163297740619E-002  0.16481232273773808        0.0000000000000000     
   0.0000000000000000        0.0000000000000000        0.0000000000000000     
   3.5004877550924639E-003   2.9542497947719400E-003   0.0000000000000000     
   7.1284561462718297E-003   7.2476179503376233E-003   0.0000000000000000     
   1.0883905173538096E-002   1.2880104466697049E-002   0.0000000000000000     
   1.4766834836891268E-002   1.9851709343850221E-002   0.0000000000000000     
   0.0000000000000000        0.0000000000000000        0.0000000000000000     
   2.6523056530032120E-003   2.7738622851258129E-003   0.0000000000000000     
   5.3533858064020948E-003   6.8901365452214390E-003   0.0000000000000000     
   8.1032404601966493E-003   1.2348822780286879E-002   0.0000000000000000     
   1.0901869614386873E-002   1.9149920990322134E-002   0.0000000000000000     
   0.0000000000000000        0.0000000000000000        0.0000000000000000     
   1.7861636597924393E-003   2.6450140639492871E-003   0.0000000000000000     
   3.5736196687358849E-003   6.6347926844229329E-003   0.0000000000000000     
   5.3623680268303376E-003   1.1969335861420937E-002   0.0000000000000000     
   7.1524087340757965E-003   1.8648643594943299E-002   0.0000000000000000     
   0.0000000000000000        0.0000000000000000        0.0000000000000000     
   9.0206177546014587E-004   2.5677051312423638E-003   0.0000000000000000     
   1.7891577332732008E-003   6.4815863679421031E-003   0.0000000000000000     
   2.6612878734391643E-003   1.1741643710099217E-002   0.0000000000000000     
   3.5184521959580367E-003   1.8347877157713712E-002   0.0000000000000000     
   0.0000000000000000        0.0000000000000000        0.0000000000000000     
   6.3318491075325944E-015   2.5419354870050408E-003   0.0000000000000000     
   1.4041285495425271E-014   6.4305175957789507E-003   0.0000000000000000     
   2.3129501786067763E-014   1.1665746326321728E-002   0.0000000000000000     
   3.3594546415549598E-014   1.8247621678633374E-002   0.0000000000000000     
   1.4766834836891268E-002   1.9851709343850221E-002   0.0000000000000000     
   1.8610717599237592E-002   2.7900140658288653E-002   0.0000000000000000     
   2.2249025923483309E-002   3.6763106486503876E-002   0.0000000000000000     
   2.5681759809628439E-002   4.6440606828495878E-002   0.0000000000000000     
   2.8908919257672968E-002   5.6932641684264693E-002   0.0000000000000000     
   1.0901869614386873E-002   1.9149920990322134E-002   0.0000000000000000     
   1.3673672445872951E-002   2.7062334349878203E-002   0.0000000000000000     
   1.6343048131555061E-002   3.5854966033506096E-002   0.0000000000000000     
   1.8909996671433206E-002   4.5527816041205794E-002   0.0000000000000000     
   2.1374518065507383E-002   5.6080884372977320E-002   0.0000000000000000     
   7.1524087340757965E-003   1.8648643594943299E-002   0.0000000000000000     
   8.9262044615526764E-003   2.6463901272440696E-002   0.0000000000000000     
   1.0666217880341392E-002   3.5206294281363792E-002   0.0000000000000000     
   1.2372448990441945E-002   4.4875822621712601E-002   0.0000000000000000     
   1.4044897791854333E-002   5.5472486293487111E-002   0.0000000000000000     
   3.5184521959580367E-003   1.8347877157713712E-002   0.0000000000000000     
   4.3683136462767695E-003   2.6104841425976123E-002   0.0000000000000000     
   5.2185351698423085E-003   3.4817091230076987E-002   0.0000000000000000     
   6.0691167666546584E-003   4.4484626570016297E-002   0.0000000000000000     
   6.9200584367138159E-003   5.5107447445794072E-002   0.0000000000000000     
   3.3594546415549598E-014   1.8247621678633374E-002   0.0000000000000000     
   4.5225108380453349E-014   2.5985154810484488E-002   0.0000000000000000     
   5.7808982210569293E-014   3.4687356879645664E-002   0.0000000000000000     
   7.1345320872950174E-014   4.4354227886116905E-002   0.0000000000000000     
   8.5833683910463421E-014   5.4985767829898211E-002   0.0000000000000000     
   2.8908919257672968E-002   5.6932641684264693E-002   0.0000000000000000     
   3.1937734466862280E-002   6.8184862474843788E-002   0.0000000000000000     
   3.4775435636441754E-002   8.0142920621266739E-002   0.0000000000000000     
   3.7422022766411399E-002   9.2806816123533517E-002   0.0000000000000000     
   3.9877495856771202E-002  0.10617654898164414        0.0000000000000000     
   2.1374518065507383E-002   5.6080884372977320E-002   0.0000000000000000     
   2.3706478478194043E-002   6.7418765504793310E-002   0.0000000000000000     
   2.5875744073909628E-002   7.9446053912626421E-002   0.0000000000000000     
   2.7882314852654140E-002   9.2162749596476662E-002   0.0000000000000000     
   2.9726190814427577E-002  0.10556885255634402        0.0000000000000000     
   1.4044897791854333E-002   5.5472486293487111E-002   0.0000000000000000     
   1.5639770737511181E-002   6.6871553383330049E-002   0.0000000000000000     
   1.7113274280345116E-002   7.8948291977884125E-002   0.0000000000000000     
   1.8465408420356131E-002   9.1702702077149381E-002   0.0000000000000000     
   1.9696173157544232E-002  0.10513478368112573        0.0000000000000000     
   6.9200584367138159E-003   5.5107447445794072E-002   0.0000000000000000     
   7.7376112448136981E-003   6.6543226110454032E-002   0.0000000000000000     
   8.4880262557482187E-003   7.8649634817039876E-002   0.0000000000000000     
   9.1713034695173751E-003   9.1426673565551647E-002   0.0000000000000000     
   9.7874428861211699E-003  0.10487434235598930        0.0000000000000000     
   8.5833683910463421E-014   5.4985767829898211E-002   0.0000000000000000     
   1.0159473089188520E-013   6.6433783686165260E-002   0.0000000000000000     
   1.1893752042274608E-013   7.8550082430093676E-002   0.0000000000000000     
   1.3787010270417677E-013   9.1334664061683501E-002   0.0000000000000000     
   1.5838979433580036E-013  0.10478752858093471        0.0000000000000000     
   3.9877495856771202E-002  0.10617654898164414        0.0000000000000000     
   4.2125849624747955E-002  0.12013327349342440        0.0000000000000000     
   4.4151078787568444E-002  0.13455814395670015        0.0000000000000000     
   4.5953183345232670E-002  0.14945116037147138        0.0000000000000000     
   4.7532163297740619E-002  0.16481232273773808        0.0000000000000000     
   2.9726190814427577E-002  0.10556885255634402        0.0000000000000000     
   3.1425473107494765E-002  0.11956326514167000        0.0000000000000000     
   3.2998262880120553E-002  0.13404488970189612        0.0000000000000000     
   3.4444560132304916E-002  0.14901372623702241        0.0000000000000000     
   3.5764364864047875E-002  0.16446977474704888        0.0000000000000000     
   1.9696173157544232E-002  0.10513478368112573        0.0000000000000000     
   2.0837705997650061E-002  0.11915611631898088        0.0000000000000000     
   2.1922144446414261E-002  0.13367827951988245        0.0000000000000000     
   2.2949488503836830E-002  0.14870127328383043        0.0000000000000000     
   2.3919738169917767E-002  0.16422509761082488        0.0000000000000000     
   9.7874428861211699E-003  0.10487434235598930        0.0000000000000000     
   1.0362548295213825E-002  0.11891182702535703        0.0000000000000000     
   1.0922723486449569E-002  0.13345831341065909        0.0000000000000000     
   1.1467968459828389E-002  0.14851380151189544        0.0000000000000000     
   1.1998283215350302E-002  0.16407829132906601        0.0000000000000000     
   1.5838979433580036E-013  0.10478752858093471        0.0000000000000000     
   1.8606730739501032E-013  0.11883039726079851        0.0000000000000000     
   2.2647313711876560E-013  0.13338499137422605        0.0000000000000000     
   2.7961004822260604E-013  0.14845131092121730        0.0000000000000000     
   3.4547538441120906E-013  0.16402935590177237        0.0000000000000000     
   0.0000000000000000        0.0000000000000000        0.0000000000000000     
   6.3318491075325944E-015   2.5419354870050408E-003   0.0000000000000000     
   1.4041285495425271E-014   6.4305175957789507E-003   0.0000000000000000     
   2.3129501786067763E-014   1.1665746326321728E-002   0.0000000000000000     
   3.3594546415549598E-014   1.8247621678633374E-002   0.0000000000000000     
   0.0000000000000000        0.0000000000000000        0.0000000000000000     
  -9.0206177544827960E-004   2.5677051312377290E-003   0.0000000000000000     
  -1.7891577332467894E-003   6.4815863679342396E-003   0.0000000000000000     
  -2.6612878733955291E-003   1.1741643710089532E-002   0.0000000000000000     
  -3.5184521958944977E-003   1.8347877157703602E-002   0.0000000000000000     
   0.0000000000000000        0.0000000000000000        0.0000000000000000     
  -1.7861636597829649E-003   2.6450140639408342E-003   0.0000000000000000     
  -3.5736196687144875E-003   6.6347926844087333E-003   0.0000000000000000     
  -5.3623680267945693E-003   1.1969335861403698E-002   0.0000000000000000     
  -7.1524087340232093E-003   1.8648643594925726E-002   0.0000000000000000     
   0.0000000000000000        0.0000000000000000        0.0000000000000000     
  -2.6523056529977238E-003   2.7738622851143585E-003   0.0000000000000000     
  -5.3533858063890549E-003   6.8901365452024342E-003   0.0000000000000000     
  -8.1032404601739938E-003   1.2348822780264229E-002   0.0000000000000000     
  -1.0901869614352536E-002   1.9149920990299739E-002   0.0000000000000000     
   0.0000000000000000        0.0000000000000000        0.0000000000000000     
  -3.5004877550925571E-003   2.9542497947582999E-003   0.0000000000000000     
  -7.1284561462704888E-003   7.2476179503153416E-003   0.0000000000000000     
  -1.0883905173533798E-002   1.2880104466671122E-002   0.0000000000000000     
  -1.4766834836882483E-002   1.9851709343825644E-002   0.0000000000000000     
   3.3594546415549598E-014   1.8247621678633374E-002   0.0000000000000000     
   4.5225108380453349E-014   2.5985154810484488E-002   0.0000000000000000     
   5.7808982210569293E-014   3.4687356879645664E-002   0.0000000000000000     
   7.1345320872950174E-014   4.4354227886116905E-002   0.0000000000000000     
   8.5833683910463421E-014   5.4985767829898211E-002   0.0000000000000000     
  -3.5184521958944977E-003   1.8347877157703602E-002   0.0000000000000000     
  -4.3683136461912207E-003   2.6104841425967355E-002   0.0000000000000000     
  -5.2185351697332221E-003   3.4817091230071678E-002   0.0000000000000000     
  -6.0691167665205001E-003   4.4484626570016575E-002   0.0000000000000000     
  -6.9200584365530530E-003   5.5107447445802031E-002   0.0000000000000000     
  -7.1524087340232093E-003   1.8648643594925726E-002   0.0000000000000000     
  -8.9262044614818389E-003   2.6463901272426295E-002   0.0000000000000000     
  -1.0666217880251900E-002   3.5206294281356874E-002   0.0000000000000000     
  -1.2372448990333381E-002   4.4875822621717458E-002   0.0000000000000000     
  -1.4044897791726293E-002   5.5472486293508053E-002   0.0000000000000000     
  -1.0901869614352536E-002   1.9149920990299739E-002   0.0000000000000000     
  -1.3673672445826630E-002   2.7062334349861300E-002   0.0000000000000000     
  -1.6343048131498221E-002   3.5854966033501245E-002   0.0000000000000000     
  -1.8909996671367304E-002   4.5527816041219575E-002   0.0000000000000000     
  -2.1374518065433879E-002   5.6080884373016268E-002   0.0000000000000000     
  -1.4766834836882483E-002   1.9851709343825644E-002   0.0000000000000000     
  -1.8610717599225592E-002   2.7900140658272371E-002   0.0000000000000000     
  -2.2249025923472190E-002   3.6763106486504792E-002   0.0000000000000000     
  -2.5681759809622257E-002   4.6440606828522892E-002   0.0000000000000000     
  -2.8908919257675809E-002   5.6932641684326685E-002   0.0000000000000000     
   8.5833683910463421E-014   5.4985767829898211E-002   0.0000000000000000     
   1.0159473089188520E-013   6.6433783686165260E-002   0.0000000000000000     