 <VTKFile type="UnstructuredGrid"  version="0.1"   >
 <UnstructuredGrid>
 <Piece  NumberOfPoints="          1600 "  NumberOfCells="         1024 ">
 <Points>
 <DataArray  type="Float64" NumberOfComponents="3"  format="ascii" >
   0.0000000000000000        0.0000000000000000        0.0000000000000000     
   3.1250000000000000E-002   0.0000000000000000        0.0000000000000000     
   6.2500000000000000E-002   0.0000000000000000        0.0000000000000000     
   9.3750000000000000E-002   0.0000000000000000        0.0000000000000000     
  0.12500000000000000        0.0000000000000000        0.0000000000000000     
   0.0000000000000000        3.1250000000000000E-002   0.0000000000000000     
   3.1250000000000000E-002   3.1250000000000000E-002   0.0000000000000000     
   6.2500000000000000E-002   3.1250000000000000E-002   0.0000000000000000     
   9.3750000000000000E-002   3.1250000000000000E-002   0.0000000000000000     
  0.12500000000000000        3.1250000000000000E-002   0.0000000000000000     
   0.0000000000000000        6.2500000000000000E-002   0.0000000000000000     
   3.1250000000000000E-002   6.2500000000000000E-002   0.0000000000000000     
   6.2500000000000000E-002   6.2500000000000000E-002   0.0000000000000000     
   9.3750000000000000E-002   6.2500000000000000E-002   0.0000000000000000     
  0.12500000000000000        6.2500000000000000E-002   0.0000000000000000     
   0.0000000000000000        9.3750000000000000E-002   0.0000000000000000     
   3.1250000000000000E-002   9.3750000000000000E-002   0.0000000000000000     
   6.2500000000000000E-002   9.3750000000000000E-002   0.0000000000000000     
   9.3750000000000000E-002   9.3750000000000000E-002   0.0000000000000000     
  0.12500000000000000        9.3750000000000000E-002   0.0000000000000000     
   0.0000000000000000       0.12500000000000000        0.0000000000000000     
   3.1250000000000000E-002  0.12500000000000000        0.0000000000000000     
   6.2500000000000000E-002  0.12500000000000000        0.0000000000000000     
   9.3750000000000000E-002  0.12500000000000000        0.0000000000000000     
  0.12500000000000000       0.12500000000000000        0.0000000000000000     
  0.12500000000000000        0.0000000000000000        0.0000000000000000     
  0.15625000000000000        0.0000000000000000        0.0000000000000000     
  0.18750000000000000        0.0000000000000000        0.0000000000000000     
  0.21875000000000000        0.0000000000000000        0.0000000000000000     
  0.25000000000000000        0.0000000000000000        0.0000000000000000     
  0.12500000000000000        3.1250000000000000E-002   0.0000000000000000     
  0.15625000000000000        3.1250000000000000E-002   0.0000000000000000     
  0.18750000000000000        3.1250000000000000E-002   0.0000000000000000     
  0.21875000000000000        3.1250000000000000E-002   0.0000000000000000     
  0.25000000000000000        3.1250000000000000E-002   0.0000000000000000     
  0.12500000000000000        6.2500000000000000E-002   0.0000000000000000     
  0.15625000000000000        6.2500000000000000E-002   0.0000000000000000     
  0.18750000000000000        6.2500000000000000E-002   0.0000000000000000     
  0.21875000000000000        6.2500000000000000E-002   0.0000000000000000     
  0.25000000000000000        6.2500000000000000E-002   0.0000000000000000     
  0.12500000000000000        9.3750000000000000E-002   0.0000000000000000     
  0.15625000000000000        9.3750000000000000E-002   0.0000000000000000     
  0.18750000000000000        9.3750000000000000E-002   0.0000000000000000     
  0.21875000000000000        9.3750000000000000E-002   0.0000000000000000     
  0.25000000000000000        9.3750000000000000E-002   0.0000000000000000     
  0.12500000000000000       0.12500000000000000        0.0000000000000000     
  0.15625000000000000       0.12500000000000000        0.0000000000000000     
  0.18750000000000000       0.12500000000000000        0.0000000000000000     
  0.21875000000000000       0.12500000000000000        0.0000000000000000     
  0.25000000000000000       0.12500000000000000        0.0000000000000000     
  0.25000000000000000        0.0000000000000000        0.0000000000000000     
  0.28125000000000000        0.0000000000000000        0.0000000000000000     
  0.31250000000000000        0.0000000000000000        0.0000000000000000     
  0.34375000000000000        0.0000000000000000        0.0000000000000000     
  0.37500000000000000        0.0000000000000000        0.0000000000000000     
  0.25000000000000000        3.1250000000000000E-002   0.0000000000000000     
  0.28125000000000000        3.1250000000000000E-002   0.0000000000000000     
  0.31250000000000000        3.1250000000000000E-002   0.0000000000000000     
  0.34375000000000000        3.1250000000000000E-002   0.0000000000000000     
  0.37500000000000000        3.1250000000000000E-002   0.0000000000000000     
  0.25000000000000000        6.2500000000000000E-002   0.0000000000000000     
  0.28125000000000000        6.2500000000000000E-002   0.0000000000000000     
  0.31250000000000000        6.2500000000000000E-002   0.0000000000000000     
  0.34375000000000000        6.2500000000000000E-002   0.0000000000000000     
  0.37500000000000000        6.2500000000000000E-002   0.0000000000000000     
  0.25000000000000000        9.3750000000000000E-002   0.0000000000000000     
  0.28125000000000000        9.3750000000000000E-002   0.0000000000000000     
  0.31250000000000000        9.3750000000000000E-002   0.0000000000000000     
  0.34375000000000000        9.3750000000000000E-002   0.0000000000000000     
  0.37500000000000000        9.3750000000000000E-002   0.0000000000000000     
  0.25000000000000000       0.12500000000000000        0.0000000000000000     
  0.28125000000000000       0.12500000000000000        0.0000000000000000     
  0.31250000000000000       0.12500000000000000        0.0000000000000000     
  0.34375000000000000       0.12500000000000000        0.0000000000000000     
  0.37500000000000000       0.12500000000000000        0.0000000000000000     
  0.37500000000000000        0.0000000000000000        0.0000000000000000     
  0.40625000000000000        0.0000000000000000        0.0000000000000000     
  0.43750000000000000        0.0000000000000000        0.0000000000000000     
  0.46875000000000000        0.0000000000000000        0.0000000000000000     
  0.50000000000000000        0.0000000000000000        0.0000000000000000     
  0.37500000000000000        3.1250000000000000E-002   0.0000000000000000     
  0.40625000000000000        3.1250000000000000E-002   0.0000000000000000     
  0.43750000000000000        3.1250000000000000E-002   0.0000000000000000     
  0.46875000000000000        3.1250000000000000E-002   0.0000000000000000     
  0.50000000000000000        3.1250000000000000E-002   0.0000000000000000     
  0.37500000000000000        6.2500000000000000E-002   0.0000000000000000     
  0.40625000000000000        6.2500000000000000E-002   0.0000000000000000     
  0.43750000000000000        6.2500000000000000E-002   0.0000000000000000     
  0.46875000000000000        6.2500000000000000E-002   0.0000000000000000     
  0.50000000000000000        6.2500000000000000E-002   0.0000000000000000     
  0.37500000000000000        9.3750000000000000E-002   0.0000000000000000     
  0.40625000000000000        9.3750000000000000E-002   0.0000000000000000     
  0.43750000000000000        9.3750000000000000E-002   0.0000000000000000     
  0.46875000000000000        9.3750000000000000E-002   0.0000000000000000     
  0.50000000000000000        9.3750000000000000E-002   0.0000000000000000     
  0.37500000000000000       0.12500000000000000        0.0000000000000000     
  0.40625000000000000       0.12500000000000000        0.0000000000000000     
  0.43750000000000000       0.12500000000000000        0.0000000000000000     
  0.46875000000000000       0.12500000000000000        0.0000000000000000     
  0.50000000000000000       0.12500000000000000        0.0000000000000000     
  0.50000000000000000        0.0000000000000000        0.0000000000000000     
  0.53125000000000000        0.0000000000000000        0.0000000000000000     
  0.56250000000000000        0.0000000000000000        0.0000000000000000     
  0.59375000000000000        0.0000000000000000        0.0000000000000000     
  0.62500000000000000        0.0000000000000000        0.0000000000000000     
  0.50000000000000000        3.1250000000000000E-002   0.0000000000000000     
  0.53125000000000000        3.1250000000000000E-002   0.0000000000000000     
  0.56250000000000000        3.1250000000000000E-002   0.0000000000000000     
  0.59375000000000000        3.1250000000000000E-002   0.0000000000000000     
  0.62500000000000000        3.1250000000000000E-002   0.0000000000000000     
  0.50000000000000000        6.2500000000000000E-002   0.0000000000000000     
  0.53125000000000000        6.2500000000000000E-002   0.0000000000000000     
  0.56250000000000000        6.2500000000000000E-002   0.0000000000000000     
  0.59375000000000000        6.2500000000000000E-002   0.0000000000000000     
  0.62500000000000000        6.2500000000000000E-002   0.0000000000000000     
  0.50000000000000000        9.3750000000000000E-002   0.0000000000000000     
  0.53125000000000000        9.3750000000000000E-002   0.0000000000000000     
  0.56250000000000000        9.3750000000000000E-002   0.0000000000000000     
  0.59375000000000000        9.3750000000000000E-002   0.0000000000000000     
  0.62500000000000000        9.3750000000000000E-002   0.0000000000000000     
  0.50000000000000000       0.12500000000000000        0.0000000000000000     
  0.53125000000000000       0.12500000000000000        0.0000000000000000     
  0.56250000000000000       0.12500000000000000        0.0000000000000000     
[...]
 <PointData>
 <DataArray  type="Float64" Name="disp" NumberOfComponents="3" format="ascii">
   0.0000000000000000        0.0000000000000000        0.0000000000000000     
   3.8668297028183129E-004   1.6869390102662322E-004   0.0000000000000000     
   7.9500238864090467E-004  -1.2091856957089210E-004   0.0000000000000000     
   1.2249582550772201E-003  -8.6883741179254583E-004   0.0000000000000000     
   1.6765505695907777E-003  -2.0750626256383379E-003   0.0000000000000000     
   0.0000000000000000        0.0000000000000000        0.0000000000000000     
   6.6161716140984836E-004   8.2220130237090652E-005   0.0000000000000000     
   1.3617229001647827E-003  -2.7248716280057236E-004   0.0000000000000000     
   2.1003172162648034E-003  -1.0641218791129889E-003   0.0000000000000000     
   2.8774001097099104E-003  -2.2926840187001592E-003   0.0000000000000000     
   0.0000000000000000        0.0000000000000000        0.0000000000000000     
   9.1331622081875256E-004  -2.3931431583594355E-005   0.0000000000000000     
   1.8805916147112134E-003  -4.5780437031330516E-004   0.0000000000000000     
   2.9018261816773825E-003  -1.3016188161891324E-003   0.0000000000000000     
   3.9770199217172598E-003  -2.5553747692110764E-003   0.0000000000000000     
   0.0000000000000000        0.0000000000000000        0.0000000000000000     
   1.1417801485085442E-003  -1.4976078443543176E-004   0.0000000000000000     
   2.3516085322801967E-003  -6.7687019210909045E-004   0.0000000000000000     
   3.6294851513149567E-003  -1.5813282230209762E-003   0.0000000000000000     
   4.9754100056128249E-003  -2.8631348771710891E-003   0.0000000000000000     
   0.0000000000000000        0.0000000000000000        0.0000000000000000     
   1.3470089444792236E-003  -2.9526792831842153E-004   0.0000000000000000     
   2.7747736528717327E-003  -9.2968462818792850E-004   0.0000000000000000     
   4.2832941251775272E-003  -1.9032500996085206E-003   0.0000000000000000     
   5.8725703613966077E-003  -3.2159643425801977E-003   0.0000000000000000     
   1.6765505695907777E-003  -2.0750626256383379E-003   0.0000000000000000     
   2.2180502270839121E-003  -3.6372029529366948E-003   0.0000000000000000     
   2.9177281224589571E-003  -5.4528671355160404E-003   0.0000000000000000     
   3.7755842557159144E-003  -7.5220551733763763E-003   0.0000000000000000     
   4.7916186268547826E-003  -9.8447670665177036E-003   0.0000000000000000     
   2.8774001097099104E-003  -2.2926840187001592E-003   0.0000000000000000     
   3.7301719159354330E-003  -3.8729184068892475E-003   0.0000000000000000     
   4.6958329703766970E-003  -5.7195698690074206E-003   0.0000000000000000     
   5.7743832730337043E-003  -7.8326384050546767E-003   0.0000000000000000     
   6.9658228239064535E-003  -1.0212124015031016E-002   0.0000000000000000     
   3.9770199217172598E-003  -2.5553747692110764E-003   0.0000000000000000     
   5.1155503424233457E-003  -4.1535704397497311E-003   0.0000000000000000     
   6.3267949513881386E-003  -6.0307040381756914E-003   0.0000000000000000     
   7.6107537486116393E-003  -8.1867755644889594E-003   0.0000000000000000     
   8.9674267340938470E-003  -1.0621785018689532E-002   0.0000000000000000     
   4.9754100056128249E-003  -2.8631348771710891E-003   0.0000000000000000     
   6.3741855065476520E-003  -4.4791590515181447E-003   0.0000000000000000     
   7.8106140654932823E-003  -6.3862696430208544E-003   0.0000000000000000     
   9.2846956824497191E-003  -8.5844666516792217E-003   0.0000000000000000     
   1.0796430357416963E-002  -1.1073750077493245E-002   0.0000000000000000     
   5.8725703613966077E-003  -3.2159643425801977E-003   0.0000000000000000     
   7.5060774083083497E-003  -4.8496842421944858E-003   0.0000000000000000     
   9.1472903126921298E-003  -6.7862666835429098E-003   0.0000000000000000     
   1.0796209074547945E-002  -9.0257116666254671E-003   0.0000000000000000     
   1.2452833693875801E-002  -1.1568019191442163E-002   0.0000000000000000     
   4.7916186268547826E-003  -9.8447670665177036E-003   0.0000000000000000     
   5.9343961119009622E-003  -1.2331858560534651E-002   0.0000000000000000     
   7.1724815868798508E-003  -1.4894185401021854E-002   0.0000000000000000     
   8.5058750517914526E-003  -1.7531747587979311E-002   0.0000000000000000     
   9.9345765066357634E-003  -2.0244545121407026E-002   0.0000000000000000     
   6.9658228239064535E-003  -1.0212124015031016E-002   0.0000000000000000     
   8.2671134067711597E-003  -1.2748691352509143E-002   0.0000000000000000     
   9.6752168054040303E-003  -1.5333005071061750E-002   0.0000000000000000     
   1.1190133019805074E-002  -1.7965065170688847E-002   0.0000000000000000     
   1.2811862049974282E-002  -2.0644871651390430E-002   0.0000000000000000     
   8.9674267340938470E-003  -1.0621785018689532E-002   0.0000000000000000     
   1.0419554278132617E-002  -1.3210024608571449E-002   0.0000000000000000     
   1.1989876751025802E-002  -1.5825786541928746E-002   0.0000000000000000     
   1.3678394152773398E-002  -1.8469070818761431E-002   0.0000000000000000     
   1.5485106483375411E-002  -2.1139877439069497E-002   0.0000000000000000     
   1.0796430357416963E-002  -1.1073750077493245E-002   0.0000000000000000     
   1.2391718725985334E-002  -1.3715858328721572E-002   0.0000000000000000     
   1.4116461423745154E-002  -1.6372529813622839E-002   0.0000000000000000     
   1.5970658450696427E-002  -1.9043764532197058E-002   0.0000000000000000     
   1.7954309806839149E-002  -2.1729562484444222E-002   0.0000000000000000     
   1.2452833693875801E-002  -1.1568019191442163E-002   0.0000000000000000     
   1.4183606750329312E-002  -1.4266192512959512E-002   0.0000000000000000     
   1.6054970823562102E-002  -1.6973234886144033E-002   0.0000000000000000     
   1.8066925913574162E-002  -1.9689146310995734E-002   0.0000000000000000     
   2.0219472020365500E-002  -2.2413926787514610E-002   0.0000000000000000     
   9.9345765066357634E-003  -2.0244545121407026E-002   0.0000000000000000     
   1.1419811180864766E-002  -2.3209084126538274E-002   0.0000000000000000     
   1.2922804303930445E-002  -2.6601870728606338E-002   0.0000000000000000     
   1.4443555875832794E-002  -3.0422904927611225E-002   0.0000000000000000     
   1.5982065896571820E-002  -3.4672186723552934E-002   0.0000000000000000     
   1.2811862049974282E-002  -2.0644871651390430E-002   0.0000000000000000     
   1.4473335624581142E-002  -2.3593598172562291E-002   0.0000000000000000     
   1.6107485472295131E-002  -2.7032418393600217E-002   0.0000000000000000     
   1.7714311593116257E-002  -3.0961332314504222E-002   0.0000000000000000     
   1.9293813987044512E-002  -3.5380339935274285E-002   0.0000000000000000     
   1.5485106483375411E-002  -2.1139877439069497E-002   0.0000000000000000     
   1.7313727666076022E-002  -2.4086378612120971E-002   0.0000000000000000     
   1.9067971624119405E-002  -2.7556746547183882E-002   0.0000000000000000     
   2.0747838357505578E-002  -3.1550981244258224E-002   0.0000000000000000     
   2.2353327866234524E-002  -3.6069082703344010E-002   0.0000000000000000     
   1.7954309806839149E-002  -2.1729562484444222E-002   0.0000000000000000     
   1.9940987305349406E-002  -2.4687425445214319E-002   0.0000000000000000     
   2.1804262759403281E-002  -2.8174855189357327E-002   0.0000000000000000     
   2.3544136169000765E-002  -3.2191851716873256E-002   0.0000000000000000     
   2.5160607534141864E-002  -3.6738415027762109E-002   0.0000000000000000     
   2.0219472020365500E-002  -2.2413926787514610E-002   0.0000000000000000     
   2.2355114542401296E-002  -2.5396738671842330E-002   0.0000000000000000     
   2.4316358878146736E-002  -2.8886744320120561E-002   0.0000000000000000     
   2.6103205027601811E-002  -3.2883943732349305E-002   0.0000000000000000     
   2.7715652990766525E-002  -3.7388336908528566E-002   0.0000000000000000     
   1.5982065896571820E-002  -3.4672186723552934E-002   0.0000000000000000     
   1.8146603973993987E-002  -3.8811122200104797E-002   0.0000000000000000     
   2.1545439715945774E-002  -4.2301117440940179E-002   0.0000000000000000     
   2.6178573122427169E-002  -4.5142172446059066E-002   0.0000000000000000     
   3.2046004193438185E-002  -4.7334287215461457E-002   0.0000000000000000     
   1.9293813987044512E-002  -3.5380339935274285E-002   0.0000000000000000     
   2.1349768341128419E-002  -3.9699256203156688E-002   0.0000000000000000     
   2.4385950342416494E-002  -4.3327896065397699E-002   0.0000000000000000     
   2.8402359990908736E-002  -4.6266259521997338E-002   0.0000000000000000     
   3.3398997286605156E-002  -4.8514346572955579E-002   0.0000000000000000     
   2.2353327866234524E-002  -3.6069082703344010E-002   0.0000000000000000     
   2.4291676904356577E-002  -4.0482904842124370E-002   0.0000000000000000     
   2.6970122225922055E-002  -4.4164301578282487E-002   0.0000000000000000     
   3.0388663830930956E-002  -4.7113272911818334E-002   0.0000000000000000     
   3.4547301719383292E-002  -4.9329818842731923E-002   0.0000000000000000     
   2.5160607534141864E-002  -3.6738415027762109E-002   0.0000000000000000     
   2.6972329663678466E-002  -4.1162068117007858E-002   0.0000000000000000     
   2.9297955366462451E-002  -4.4810333979594504E-002   0.0000000000000000     
   3.2137484642493816E-002  -4.7683212615522060E-002   0.0000000000000000     
   3.5490917491772578E-002  -4.9780704024790512E-002   0.0000000000000000     
   2.7715652990766525E-002  -3.7388336908528566E-002   0.0000000000000000     
   2.9391726619094092E-002  -4.1736746027807123E-002   0.0000000000000000     
   3.1369449764037688E-002  -4.5265993269333775E-002   0.0000000000000000     
   3.3648822425597337E-002  -4.7976078633108508E-002   0.0000000000000000     
   3.6229844603773029E-002  -4.9867002119131323E-002   0.0000000000000000     
   3.2046004193438185E-002  -4.7334287215461457E-002   0.0000000000000000     
   3.8284784105946573E-002  -4.7830963406789530E-002   0.0000000000000000     
   4.4031964036920120E-002  -4.5585702677685455E-002   0.0000000000000000     
   4.9287543986358810E-002  -4.0598505028149219E-002   0.0000000000000000     
   5.4051523954262659E-002  -3.2869370458180835E-002   0.0000000000000000     
   3.3398997286605156E-002  -4.8514346572955579E-002   0.0000000000000000     
   3.8508147021311737E-002  -4.9023651255818625E-002   0.0000000000000000     
   4.2862093986834472E-002  -4.6745667608132674E-002   0.0000000000000000     
   4.6460838183173377E-002  -4.1680395629897733E-002   0.0000000000000000     
   4.9304379610328450E-002  -3.3827835321113803E-002   0.0000000000000000     
   3.4547301719383292E-002  -4.9329818842731923E-002   0.0000000000000000     
   3.8671480232159966E-002  -4.9813607022993103E-002   0.0000000000000000     
   4.1986643710141915E-002  -4.7564305104571734E-002   0.0000000000000000     
   4.4492792153329151E-002  -4.2581913087467817E-002   0.0000000000000000     
   4.6189925561721648E-002  -3.4866430971681336E-002   0.0000000000000000     
   3.5490917491772578E-002  -4.9780704024790512E-002   0.0000000000000000     
   3.8774783738491261E-002  -5.0200830708312993E-002   0.0000000000000000     
   4.1405613206842447E-002  -4.8041615167002651E-002   0.0000000000000000     
   4.3383405896826113E-002  -4.3303057400859463E-002   0.0000000000000000     
   4.4708161808442275E-002  -3.5985157409883450E-002   0.0000000000000000     
   3.6229844603773029E-002  -4.9867002119131323E-002   0.0000000000000000     
   3.8818057540305644E-002  -5.0185322311778267E-002   0.0000000000000000     
   4.1119002476936069E-002  -4.8177597795425388E-002   0.0000000000000000     
   4.3132679413664284E-002  -4.3843828570072678E-002   0.0000000000000000     
   4.4859088350490316E-002  -3.7184014635720145E-002   0.0000000000000000     
   5.4051523954262659E-002  -3.2869370458180835E-002   0.0000000000000000     
   5.6938755632086738E-002  -2.5195112389346731E-002   0.0000000000000000     
   5.6564090711286132E-002  -2.0372544243213331E-002   0.0000000000000000     
   5.2927529191860834E-002  -1.8401666019780646E-002   0.0000000000000000     
   4.6029071073810865E-002  -1.9282477719048664E-002   0.0000000000000000     
   4.9304379610328450E-002  -3.3827835321113803E-002   0.0000000000000000     
   5.0729745862091134E-002  -2.5979925900901570E-002   0.0000000000000000     
   5.0073964532252914E-002  -2.0928606588381755E-002   0.0000000000000000     
   4.7337035620813796E-002  -1.8673877383554346E-002   0.0000000000000000     
   4.2518959127773759E-002  -1.9215738286419350E-002   0.0000000000000000     
   4.6189925561721648E-002  -3.4866430971681336E-002   0.0000000000000000     
   4.6800522818825796E-002  -2.7165132019519148E-002   0.0000000000000000     
   4.6047062808147965E-002  -2.2225289493288100E-002   0.0000000000000000     
   4.3929545529688155E-002  -2.0046903392988188E-002   0.0000000000000000     
   4.0447970983446366E-002  -2.0629973718619410E-002   0.0000000000000000     
   4.4708161808442275E-002  -3.5985157409883450E-002   0.0000000000000000     
   4.5151086502290716E-002  -2.8750730745199467E-002   0.0000000000000000     
   4.4483385538971271E-002  -2.4262592957932372E-002   0.0000000000000000     
   4.2705058918483925E-002  -2.2520744048082162E-002   0.0000000000000000     
   3.9816106640828693E-002  -2.3525184015648834E-002   0.0000000000000000     
   4.4859088350490316E-002  -3.7184014635720145E-002   0.0000000000000000     
   4.5781436912485908E-002  -3.0736722077942528E-002   0.0000000000000000     
   4.5382932724722845E-002  -2.7040516982314564E-002   0.0000000000000000     
   4.3663575787201113E-002  -2.6095399348836267E-002   0.0000000000000000     
   4.0623366099920726E-002  -2.7901369177507632E-002   0.0000000000000000     
   4.6029071073810865E-002  -1.9282477719048664E-002   0.0000000000000000     
   4.4596296100400168E-002  -1.7202367729930702E-002   0.0000000000000000     
   5.7356784014892713E-002  -6.3487244413400609E-003   0.0000000000000000     
   8.4310534817288493E-002   1.3278452146723258E-002   0.0000000000000000     
  0.12545754850758750        4.1679162034259254E-002   0.0000000000000000     
   4.2518959127773759E-002  -1.9215738286419350E-002   0.0000000000000000     
   4.1815326034301922E-002  -1.7710550487669945E-002   0.0000000000000000     
   5.1421727321567356E-002  -9.3146751779992938E-003   0.0000000000000000     
   7.1338162989570089E-002   5.9718876425925984E-003   0.0000000000000000     
  0.10156463303831009        2.8149137974105728E-002   0.0000000000000000     
   4.0447970983446366E-002  -2.0629973718619410E-002   0.0000000000000000     
   4.0369968695497763E-002  -1.9983298715665832E-002   0.0000000000000000     
   4.8463168191917497E-002  -1.4115676629611527E-002   0.0000000000000000     
   6.4727569472705568E-002  -3.0271074604564909E-003   0.0000000000000000     
   8.9163172537861990E-002   1.3282408791799276E-002   0.0000000000000000     
   3.9816106640828693E-002  -2.3525184015648834E-002   0.0000000000000000     
   4.0260224083987696E-002  -2.4020612413918379E-002   0.0000000000000000     
   4.8481106625943113E-002  -2.0751728796176771E-002   0.0000000000000000     
   6.4478754266694943E-002  -1.3718533162424013E-002   0.0000000000000000     
   8.8253167006243166E-002  -2.9210255126601026E-003   0.0000000000000000     
   4.0623366099920726E-002  -2.7901369177507632E-002   0.0000000000000000     
   4.1486092199771743E-002  -2.9822491582427568E-002   0.0000000000000000     
   5.1475542623644226E-002  -2.9222831677695012E-002   0.0000000000000000     
   7.0591717371538187E-002  -2.6102389463309957E-002   0.0000000000000000     
   9.8834616443453635E-002  -2.0461164939272407E-002   0.0000000000000000     
   0.0000000000000000        0.0000000000000000        0.0000000000000000     
   1.3470089444792236E-003  -2.9526792831842153E-004   0.0000000000000000     
   2.7747736528717327E-003  -9.2968462818792850E-004   0.0000000000000000     
   4.2832941251775272E-003  -1.9032500996085206E-003   0.0000000000000000     
   5.8725703613966077E-003  -3.2159643425801977E-003   0.0000000000000000     
   0.0000000000000000        0.0000000000000000        0.0000000000000000     
   1.5384617357160771E-003  -4.4933485639467324E-004   0.0000000000000000     
   3.1681430641874644E-003  -1.2019596578051949E-003   0.0000000000000000     
   4.8890439854141618E-003  -2.2578744042315649E-003   0.0000000000000000     
   6.7011644993961693E-003  -3.6170790956737836E-003   0.0000000000000000     
   0.0000000000000000        0.0000000000000000        0.0000000000000000     
   1.7255976492043922E-003  -6.0084356182629631E-004   0.0000000000000000     
   3.5497728539290348E-003  -1.4794072602162661E-003   0.0000000000000000     
   5.4725256141739285E-003  -2.6356910951699092E-003   0.0000000000000000     
   7.4938559299390717E-003  -4.0696950666872268E-003   0.0000000000000000     
   0.0000000000000000        0.0000000000000000        0.0000000000000000     
   1.9084166849441685E-003  -7.4979404461329073E-004   0.0000000000000000     
   3.9196630220964439E-003  -1.7620274354211423E-003   0.0000000000000000     
   6.0337390114568283E-003  -3.0367001724235540E-003   0.0000000000000000     
   8.2506446530253193E-003  -4.5738122556205265E-003   0.0000000000000000     
   0.0000000000000000        0.0000000000000000        0.0000000000000000     
   2.0869188429354065E-003  -8.9618630475565646E-004   0.0000000000000000     
   4.2778135686896935E-003  -2.0498201834198227E-003   0.0000000000000000     
   6.5726841772628594E-003  -3.4609016359924989E-003   0.0000000000000000     
   8.9715306686549076E-003  -5.1294306624736843E-003   0.0000000000000000     
   5.8725703613966077E-003  -3.2159643425801977E-003   0.0000000000000000     
   7.5060774083083497E-003  -4.8496842421944858E-003   0.0000000000000000     
   9.1472903126921298E-003  -6.7862666835429098E-003   0.0000000000000000     
   1.0796209074547945E-002  -9.0257116666254671E-003   0.0000000000000000     
   1.2452833693875801E-002  -1.1568019191442163E-002   0.0000000000000000     
   6.7011644993961693E-003  -3.6170790956737836E-003   0.0000000000000000     
   8.5532336194898712E-003  -5.2797343822176667E-003   0.0000000000000000     
   1.0393980359051655E-002  -7.2460009139490300E-003   0.0000000000000000     
   1.2223404718081518E-002  -9.5158786908678735E-003   0.0000000000000000     
   1.4041506696579463E-002  -1.2089367712974197E-002   0.0000000000000000     
   7.4938559299390717E-003  -4.0696950666872268E-003   0.0000000000000000     
   9.5576617118766482E-003  -5.7838978420265948E-003   0.0000000000000000     
   1.1607840870638837E-002  -7.7807780884463894E-003   0.0000000000000000     
   1.3644393406225639E-002  -1.0060335805946613E-002   0.0000000000000000     
   1.5667319318637053E-002  -1.2622570994527266E-002   0.0000000000000000     
   8.2506446530253193E-003  -4.5738122556205265E-003   0.0000000000000000     
   1.0519361685468678E-002  -6.3621746216212692E-003   0.0000000000000000     
   1.2788871847453679E-002  -8.3905982070349907E-003   0.0000000000000000     
   1.5059175138980307E-002  -1.0659083011861692E-002   0.0000000000000000     
   1.7330271560048575E-002  -1.3167629036101372E-002   0.0000000000000000     
   8.9715306686549076E-003  -5.1294306624736843E-003   0.0000000000000000     
   1.1438333540265968E-002  -7.0145647210016916E-003   0.0000000000000000     
   1.3937073289496175E-002  -9.0754612697148303E-003   0.0000000000000000     
   1.6467749916345524E-002  -1.1312120308613106E-002   0.0000000000000000     
   1.9030363420814017E-002  -1.3724541837696511E-002   0.0000000000000000     
   1.2452833693875801E-002  -1.1568019191442163E-002   0.0000000000000000     
   1.4183606750329312E-002  -1.4266192512959512E-002   0.0000000000000000     