 <VTKFile type="UnstructuredGrid"  version="0.1"   >
 <UnstructuredGrid>
 <Piece  NumberOfPoints="          1600 "  NumberOfCells="         1024 ">
 <Points>
 <DataArray  type="Float64" NumberOfComponents="3"  format="ascii" >
   0.0000000000000000        0.0000000000000000        0.0000000000000000     
   3.1250000000000000E-002   0.0000000000000000        0.0000000000000000     
   6.2500000000000000E-002   0.0000000000000000        0.0000000000000000     
   9.3750000000000000E-002   0.0000000000000000        0.0000000000000000     
  0.12500000000000000        0.0000000000000000        0.0000000000000000     
   0.0000000000000000        3.1250000000000000E-002   0.0000000000000000     
   3.1250000000000000E-002   3.1250000000000000E-002   0.0000000000000000     
   6.2500000000000000E-002   3.1250000000000000E-002   0.0000000000000000     
   9.3750000000000000E-002   3.1250000000000000E-002   0.0000000000000000     
  0.12500000000000000        3.1250000000000000E-002   0.0000000000000000     
   0.0000000000000000        6.2500000000000000E-002   0.0000000000000000     
   3.1250000000000000E-002   6.2500000000000000E-002   0.0000000000000000     
   6.2500000000000000E-002   6.2500000000000000E-002   0.0000000000000000     
   9.3750000000000000E-002   6.2500000000000000E-002   0.0000000000000000     
  0.12500000000000000        6.2500000000000000E-002   0.0000000000000000     
   0.0000000000000000        9.3750000000000000E-002   0.0000000000000000     
   3.1250000000000000E-002   9.3750000000000000E-002   0.0000000000000000     
   6.2500000000000000E-002   9.3750000000000000E-002   0.0000000000000000     
   9.3750000000000000E-002   9.3750000000000000E-002   0.0000000000000000     
  0.12500000000000000        9.3750000000000000E-002   0.0000000000000000     
   0.0000000000000000       0.12500000000000000        0.0000000000000000     
   3.1250000000000000E-002  0.12500000000000000        0.0000000000000000     
   6.2500000000000000E-002  0.12500000000000000        0.0000000000000000     
   9.3750000000000000E-002  0.12500000000000000        0.0000000000000000     
  0.12500000000000000       0.12500000000000000        0.0000000000000000     
  0.12500000000000000        0.0000000000000000        0.0000000000000000     
  0.15625000000000000        0.0000000000000000        0.0000000000000000     
  0.18750000000000000        0.0000000000000000        0.0000000000000000     
  0.21875000000000000        0.0000000000000000        0.0000000000000000     
  0.25000000000000000        0.0000000000000000        0.0000000000000000     
  0.12500000000000000        3.1250000000000000E-002   0.0000000000000000     
  0.15625000000000000        3.1250000000000000E-002   0.0000000000000000     
  0.18750000000000000        3.1250000000000000E-002   0.0000000000000000     
  0.21875000000000000        3.1250000000000000E-002   0.0000000000000000     
  0.25000000000000000        3.1250000000000000E-002   0.0000000000000000     
  0.12500000000000000        6.2500000000000000E-002   0.0000000000000000     
  0.15625000000000000        6.2500000000000000E-002   0.0000000000000000     
  0.18750000000000000        6.2500000000000000E-002   0.0000000000000000     
  0.21875000000000000        6.2500000000000000E-002   0.0000000000000000     
  0.25000000000000000        6.2500000000000000E-002   0.0000000000000000     
  0.12500000000000000        9.3750000000000000E-002   0.0000000000000000     
  0.15625000000000000        9.3750000000000000E-002   0.0000000000000000     
  0.18750000000000000        9.3750000000000000E-002   0.0000000000000000     
  0.21875000000000000        9.3750000000000000E-002   0.0000000000000000     
  0.25000000000000000        9.3750000000000000E-002   0.0000000000000000     
  0.12500000000000000       0.12500000000000000        0.0000000000000000     
  0.15625000000000000       0.12500000000000000        0.0000000000000000     
  0.18750000000000000       0.12500000000000000        0.0000000000000000     
  0.21875000000000000       0.12500000000000000        0.0000000000000000     
  0.25000000000000000       0.12500000000000000        0.0000000000000000     
  0.25000000000000000        0.0000000000000000        0.0000000000000000     
  0.28125000000000000        0.0000000000000000        0.0000000000000000     
  0.31250000000000000        0.0000000000000000        0.0000000000000000     
  0.34375000000000000        0.0000000000000000        0.0000000000000000     
  0.37500000000000000        0.0000000000000000        0.0000000000000000     
  0.25000000000000000        3.1250000000000000E-002   0.0000000000000000     
  0.28125000000000000        3.1250000000000000E-002   0.0000000000000000     
  0.31250000000000000        3.1250000000000000E-002   0.0000000000000000     
  0.34375000000000000        3.1250000000000000E-002   0.0000000000000000     
  0.37500000000000000        3.1250000000000000E-002   0.0000000000000000     
  0.25000000000000000        6.2500000000000000E-002   0.0000000000000000     
  0.28125000000000000        6.2500000000000000E-002   0.0000000000000000     
  0.31250000000000000        6.2500000000000000E-002   0.0000000000000000     
  0.34375000000000000        6.2500000000000000E-002   0.0000000000000000     
  0.37500000000000000        6.2500000000000000E-002   0.0000000000000000     
  0.25000000000000000        9.3750000000000000E-002   0.0000000000000000     
  0.28125000000000000        9.3750000000000000E-002   0.0000000000000000     
  0.31250000000000000        9.3750000000000000E-002   0.0000000000000000     
  0.34375000000000000        9.3750000000000000E-002   0.0000000000000000     
  0.37500000000000000        9.3750000000000000E-002   0.0000000000000000     
  0.25000000000000000       0.12500000000000000        0.0000000000000000     
  0.28125000000000000       0.12500000000000000        0.0000000000000000     
  0.31250000000000000       0.12500000000000000        0.0000000000000000     
  0.34375000000000000       0.12500000000000000        0.0000000000000000     
  0.37500000000000000       0.12500000000000000        0.0000000000000000     
  0.37500000000000000        0.0000000000000000        0.0000000000000000     
  0.40625000000000000        0.0000000000000000        0.0000000000000000     
  0.43750000000000000        0.0000000000000000        0.0000000000000000     
  0.46875000000000000        0.0000000000000000        0.0000000000000000     
  0.50000000000000000        0.0000000000000000        0.0000000000000000     
  0.37500000000000000        3.1250000000000000E-002   0.0000000000000000     
  0.40625000000000000        3.1250000000000000E-002   0.0000000000000000     
  0.43750000000000000        3.1250000000000000E-002   0.0000000000000000     
  0.46875000000000000        3.1250000000000000E-002   0.0000000000000000     
  0.50000000000000000        3.1250000000000000E-002   0.0000000000000000     
  0.37500000000000000        6.2500000000000000E-002   0.0000000000000000     
  0.40625000000000000        6.2500000000000000E-002   0.0000000000000000     
  0.43750000000000000        6.2500000000000000E-002   0.0000000000000000     
  0.46875000000000000        6.2500000000000000E-002   0.0000000000000000     
  0.50000000000000000        6.2500000000000000E-002   0.0000000000000000     
  0.37500000000000000        9.3750000000000000E-002   0.0000000000000000     
  0.40625000000000000        9.3750000000000000E-002   0.0000000000000000     
  0.43750000000000000        9.3750000000000000E-002   0.0000000000000000     
  0.46875000000000000        9.3750000000000000E-002   0.0000000000000000     
  0.50000000000000000        9.3750000000000000E-002   0.0000000000000000     
  0.37500000000000000       0.12500000000000000        0.0000000000000000     
  0.40625000000000000       0.12500000000000000        0.0000000000000000     
  0.43750000000000000       0.12500000000000000        0.0000000000000000     
  0.46875000000000000       0.12500000000000000        0.0000000000000000     
  0.50000000000000000       0.12500000000000000        0.0000000000000000     
  0.50000000000000000        0.0000000000000000        0.0000000000000000     
  0.53125000000000000        0.0000000000000000        0.0000000000000000     
  0.56250000000000000        0.0000000000000000        0.0000000000000000     
  0.59375000000000000        0.0000000000000000        0.0000000000000000     
  0.62500000000000000        0.0000000000000000        0.0000000000000000     
  0.50000000000000000        3.1250000000000000E-002   0.0000000000000000     
  0.53125000000000000        3.1250000000000000E-002   0.0000000000000000     
  0.56250000000000000        3.1250000000000000E-002   0.0000000000000000     
  0.59375000000000000        3.1250000000000000E-002   0.0000000000000000     
  0.62500000000000000        3.1250000000000000E-002   0.0000000000000000     
  0.50000000000000000        6.2500000000000000E-002   0.0000000000000000     
  0.53125000000000000        6.2500000000000000E-002   0.0000000000000000     
  0.56250000000000000        6.2500000000000000E-002   0.0000000000000000     
  0.59375000000000000        6.2500000000000000E-002   0.0000000000000000     
  0.62500000000000000        6.2500000000000000E-002   0.0000000000000000     
  0.50000000000000000        9.3750000000000000E-002   0.0000000000000000     
  0.53125000000000000        9.3750000000000000E-002   0.0000000000000000     
  0.56250000000000000        9.3750000000000000E-002   0.0000000000000000     
  0.59375000000000000        9.3750000000000000E-002   0.0000000000000000     
  0.62500000000000000        9.3750000000000000E-002   0.0000000000000000     
  0.50000000000000000       0.12500000000000000        0.0000000000000000     
  0.53125000000000000       0.12500000000000000        0.0000000000000000     
  0.56250000000000000       0.12500000000000000        0.0000000000000000     
[...]
 <PointData>
 <DataArray  type="Float64" Name="disp" NumberOfComponents="3" format="ascii">
   0.0000000000000000        0.0000000000000000        0.0000000000000000     
   6.0972708528294469E-003   3.7844773486154105E-003   0.0000000000000000     
   1.1671930013636846E-002   7.3115476010780500E-003   0.0000000000000000     
   1.6723977482422197E-002   1.0581210757387920E-002   0.0000000000000000     
   2.1253413259185498E-002   1.3593466817545018E-002   0.0000000000000000     
   0.0000000000000000        0.0000000000000000        0.0000000000000000     
   4.8948383903824194E-003   3.0146537833423259E-003   0.0000000000000000     
   9.5830322886030564E-003   6.0455569101749837E-003   0.0000000000000000     
   1.4064581694661906E-002   9.0927093804979708E-003   0.0000000000000000     
   1.8339486608558969E-002   1.2156111194311290E-002   0.0000000000000000     
   0.0000000000000000        0.0000000000000000        0.0000000000000000     
   3.9582541078044143E-003   2.4165598959394055E-003   0.0000000000000000     
   7.9209783181858305E-003   5.0461424946443203E-003   0.0000000000000000     
   1.1888172631144250E-002   7.8887477961147451E-003   0.0000000000000000     
   1.5859837046679672E-002   1.0944375800350677E-002   0.0000000000000000     
   0.0000000000000000        0.0000000000000000        0.0000000000000000     
   3.2875180050954281E-003   1.9901956864066491E-003   0.0000000000000000     
   6.6857681023851697E-003   4.3133043544860616E-003   0.0000000000000000     
   1.0194750291869227E-002   6.9693260042382387E-003   0.0000000000000000     
   1.3814464573547602E-002   9.9582606356631766E-003   0.0000000000000000     
   0.0000000000000000        0.0000000000000000        0.0000000000000000     
   2.8826300822554617E-003   1.7355611547440566E-003   0.0000000000000000     
   5.8774016412010766E-003   3.8470424897002076E-003   0.0000000000000000     
   8.9843146768368437E-003   6.3344440048684536E-003   0.0000000000000000     
   1.2203369189162760E-002   9.1977657002487948E-003   0.0000000000000000     
   2.1253413259185498E-002   1.3593466817545018E-002   0.0000000000000000     
   2.5472840113273085E-002   1.6580011088386654E-002   0.0000000000000000     
   2.9594860814031291E-002   1.9772538876750130E-002   0.0000000000000000     
   3.3619475361460115E-002   2.3171050182635457E-002   0.0000000000000000     
   3.7546683755559557E-002   2.6775545006042623E-002   0.0000000000000000     
   1.8339486608558969E-002   1.2156111194311290E-002   0.0000000000000000     
   2.2446297744808767E-002   1.5304698222229683E-002   0.0000000000000000     
   2.6423565817925820E-002   1.8607406334867894E-002   0.0000000000000000     
   3.0271290827910125E-002   2.2064235532225921E-002   0.0000000000000000     
   3.3989472774761692E-002   2.5675185814303773E-002   0.0000000000000000     
   1.5859837046679672E-002   1.0944375800350677E-002   0.0000000000000000     
   1.9764814896936222E-002   1.4172034148406884E-002   0.0000000000000000     
   2.3531949514058036E-002   1.7530730481338144E-002   0.0000000000000000     
   2.7161240898045110E-002   2.1020464799144451E-002   0.0000000000000000     
   3.0652689048897439E-002   2.4641237101825805E-002   0.0000000000000000     
   1.3814464573547602E-002   9.9582606356631766E-003   0.0000000000000000     
   1.7428391569655449E-002   1.3182018866918267E-002   0.0000000000000000     
   2.0920011902427940E-002   1.6542511316160888E-002   0.0000000000000000     
   2.4289325571865066E-002   2.0039737983391041E-002   0.0000000000000000     
   2.7536332577966824E-002   2.3673698868608730E-002   0.0000000000000000     
   1.2203369189162760E-002   9.1977657002487948E-003   0.0000000000000000     
   1.5437027762966448E-002   1.2334652377763820E-002   0.0000000000000000     
   1.8587752983035520E-002   1.5642748839336119E-002   0.0000000000000000     
   2.1655544849369986E-002   1.9122055084965697E-002   0.0000000000000000     
   2.4640403361969834E-002   2.2772571114652546E-002   0.0000000000000000     
   3.7546683755559557E-002   2.6775545006042623E-002   0.0000000000000000     
   4.1387564541995617E-002   3.0583016140416863E-002   0.0000000000000000     
   4.5153196266434305E-002   3.4590456379203410E-002   0.0000000000000000     
   4.8843578928875621E-002   3.8797865722402257E-002   0.0000000000000000     
   5.2458712529319551E-002   4.3205244170013410E-002   0.0000000000000000     
   3.3989472774761692E-002   2.5675185814303773E-002   0.0000000000000000     
   3.7604948100320681E-002   2.9471165676128185E-002   0.0000000000000000     
   4.1144553246427309E-002   3.3483083612725922E-002   0.0000000000000000     
   4.4608288213081583E-002   3.7710939624096981E-002   0.0000000000000000     
   4.7996153000283481E-002   4.2154733710241352E-002   0.0000000000000000     
   3.0652689048897439E-002   2.4641237101825805E-002   0.0000000000000000     
   3.4037114161953722E-002   2.8440086832795749E-002   0.0000000000000000     
   3.7345336432552653E-002   3.2464053435467814E-002   0.0000000000000000     
   4.0577355860694206E-002   3.6713136909842015E-002   0.0000000000000000     
   4.3733172446378421E-002   4.1187337255918346E-002   0.0000000000000000     
   2.7536332577966824E-002   2.3673698868608730E-002   0.0000000000000000     
   3.0684062726894730E-002   2.7489779610419547E-002   0.0000000000000000     
   3.3755545824810294E-002   3.1533365847429100E-002   0.0000000000000000     
   3.6750781871713503E-002   3.5804457579637371E-002   0.0000000000000000     
   3.9669770867604370E-002   4.0303054807044374E-002   0.0000000000000000     
   2.4640403361969834E-002   2.2772571114652546E-002   0.0000000000000000     
   2.7545793795143714E-002   2.6620244008999594E-002   0.0000000000000000     
   3.0375181423200257E-002   3.0691020848609762E-002   0.0000000000000000     
   3.3128566246139461E-002   3.4984901633483050E-002   0.0000000000000000     
   3.5805948263961336E-002   3.9501886363619454E-002   0.0000000000000000     
   5.2458712529319551E-002   4.3205244170013410E-002   0.0000000000000000     
   5.5996384596856005E-002   4.7833918618019625E-002   0.0000000000000000     
   5.9454382660574893E-002   5.2705215962403656E-002   0.0000000000000000     
   6.2832706720476209E-002   5.7819136203165519E-002   0.0000000000000000     
   6.6131356776559930E-002   6.3175679340305213E-002   0.0000000000000000     
   4.7996153000283481E-002   4.2154733710241352E-002   0.0000000000000000     
   5.1301924685259487E-002   4.6823918395510013E-002   0.0000000000000000     
   5.4519380345236089E-002   5.1727946204253958E-002   0.0000000000000000     
   5.7648519980213281E-002   5.6866817136473159E-002   0.0000000000000000     
   6.0689343590191083E-002   6.2240531192167624E-002   0.0000000000000000     
   4.3733172446378421E-002   4.1187337255918346E-002   0.0000000000000000     
   4.6805159987987045E-002   4.5888463745502782E-002   0.0000000000000000     
   4.9785692283901874E-002   5.0818325650401314E-002   0.0000000000000000     
   5.2674769334122920E-002   5.5976922970613928E-002   0.0000000000000000     
   5.5472391138650171E-002   6.1364255706140625E-002   0.0000000000000000     
   3.9669770867604370E-002   4.0303054807044374E-002   0.0000000000000000     
   4.2506090505038681E-002   4.5027554667997897E-002   0.0000000000000000     
   4.5253318476572268E-002   4.9976354300845717E-002   0.0000000000000000     
   4.7911454782205098E-002   5.5149453705587825E-002   0.0000000000000000     
   5.0480499421937185E-002   6.0546852882224229E-002   0.0000000000000000     
   3.5805948263961336E-002   3.9501886363619454E-002   0.0000000000000000     
   3.8404716236414414E-002   4.4241191162995366E-002   0.0000000000000000     
   4.0922258923247246E-002   4.9202032155587168E-002   0.0000000000000000     
   4.3358576324459816E-002   5.4384409341394852E-002   0.0000000000000000     
   4.5713668440052133E-002   5.9788322720418431E-002   0.0000000000000000     
   6.6131356776559930E-002   6.3175679340305213E-002   0.0000000000000000     
   6.9330270786682982E-002   6.8738979406041387E-002   0.0000000000000000     
   7.2409386708702200E-002   7.4473170432592745E-002   0.0000000000000000     
   7.5368704542617626E-002   8.0378252419959287E-002   0.0000000000000000     
   7.8208224288429218E-002   8.6454225368140999E-002   0.0000000000000000     
   6.0689343590191083E-002   6.2240531192167624E-002   0.0000000000000000     
   6.3635957361827172E-002   6.7818884382200045E-002   0.0000000000000000     
   6.6482467481779203E-002   7.3571672717433159E-002   0.0000000000000000     
   6.9228873950047218E-002   7.9498896197866917E-002   0.0000000000000000     
   7.1875176766631188E-002   8.5600554823501346E-002   0.0000000000000000     
   5.5472391138650171E-002   6.1364255706140625E-002   0.0000000000000000     
   5.8181560295921864E-002   6.6954222991155748E-002   0.0000000000000000     
   6.0805279404376203E-002   7.2720723959833630E-002   0.0000000000000000     
   6.3343548464013230E-002   7.8663758612174228E-002   0.0000000000000000     
   6.5796367474832931E-002   8.4783326948177584E-002   0.0000000000000000     
   5.0480499421937185E-002   6.0546852882224229E-002   0.0000000000000000     
   5.2967079588967042E-002   6.6144995232908496E-002   0.0000000000000000     
   5.5377822476493206E-002   7.1920324159794158E-002   0.0000000000000000     
   5.7712728084515649E-002   7.7872839662881221E-002   0.0000000000000000     
   5.9971796413034406E-002   8.4002541742169715E-002   0.0000000000000000     
   4.5713668440052133E-002   5.9788322720418431E-002   0.0000000000000000     
   4.7992515240962742E-002   6.5391201107458274E-002   0.0000000000000000     
   5.0200096698130199E-002   7.1170473317314784E-002   0.0000000000000000     
   5.2336412811554496E-002   7.7126139349987938E-002   0.0000000000000000     
   5.4401463581235633E-002   8.3258199205477723E-002   0.0000000000000000     
   7.8208224288429218E-002   8.6454225368140999E-002   0.0000000000000000     
   8.0959636698027831E-002   9.2707559873205489E-002   0.0000000000000000     
   8.3654632523304281E-002   9.9144726531220390E-002   0.0000000000000000     
   8.6293211764258540E-002  0.10576572534218565        0.0000000000000000     
   8.8875374420890635E-002  0.11257055630610130        0.0000000000000000     
   7.1875176766631188E-002   8.5600554823501346E-002   0.0000000000000000     
   7.4437683661303433E-002   9.1878482503741130E-002   0.0000000000000000     
   7.6932702363836217E-002   9.8334513147990951E-002   0.0000000000000000     
   7.9360232874229511E-002  0.10496864675625082        0.0000000000000000     
   8.1720275192483371E-002  0.11178088332852069        0.0000000000000000     
   6.5796367474832931E-002   8.4783326948177584E-002   0.0000000000000000     
   6.8169354227827036E-002   9.1078364251268876E-002   0.0000000000000000     
   7.0468126513987345E-002   9.7547805804873336E-002   0.0000000000000000     
   7.2692684333313773E-002  0.10419165160899092        0.0000000000000000     
   7.4843027685806404E-002  0.11100990166362164        0.0000000000000000     
   5.9971796413034406E-002   8.4002541742169715E-002   0.0000000000000000     
   6.2154648397598662E-002   9.0307205115788755E-002   0.0000000000000000     
   6.4260904973757638E-002   9.6784604501867488E-002   0.0000000000000000     
   6.6290566141511312E-002  0.10343473990040597        0.0000000000000000     
   6.8243631900859719E-002  0.11025761131140414        0.0000000000000000     
   5.4401463581235633E-002   8.3258199205477723E-002   0.0000000000000000     
   5.6393566170618283E-002   8.9565005097300726E-002   0.0000000000000000     
   5.8311037743147116E-002   9.6044909238973464E-002   0.0000000000000000     
   6.0153878298822135E-002  0.10269791163049596        0.0000000000000000     
   6.1922087837643344E-002  0.10952401227186823        0.0000000000000000     
   8.8875374420890635E-002  0.11257055630610130        0.0000000000000000     
   9.1432873075688953E-002  0.11959864733472225        0.0000000000000000     
   9.3997460311141881E-002  0.12688942633980338        0.0000000000000000     
   9.6569136127249405E-002  0.13444289332134471        0.0000000000000000     
   9.9147900524011540E-002  0.14225904827934621        0.0000000000000000     
   8.1720275192483371E-002  0.11178088332852069        0.0000000000000000     
   8.4022235118796890E-002  0.11881354789809531        0.0000000000000000     
   8.6275518453369227E-002  0.12610896549826939        0.0000000000000000     
   8.8480125196200368E-002  0.13366713612904288        0.0000000000000000     
   9.0636055347290301E-002  0.14148805979041584        0.0000000000000000     
   7.4843027685806404E-002  0.11100990166362164        0.0000000000000000     
   7.6914816961358115E-002  0.11804319553490024        0.0000000000000000     
   7.8903712549861907E-002  0.12533217278896150        0.0000000000000000     
   8.0809714451317724E-002  0.13287683342580536        0.0000000000000000     
   8.2632822665725580E-002  0.14067717744543187        0.0000000000000000     
   6.8243631900859719E-002  0.11025761131140414        0.0000000000000000     
   7.0110618603372671E-002  0.11728759024513707        0.0000000000000000     
   7.1882042600619908E-002  0.12455904821187973        0.0000000000000000     
   7.3557903892601501E-002  0.13207198521163216        0.0000000000000000     
   7.5138202479317392E-002  0.13982640124439430        0.0000000000000000     
   6.1922087837643344E-002  0.10952401227186823        0.0000000000000000     
   6.3609640044840460E-002  0.11654673202880574        0.0000000000000000     
   6.5210508605643230E-002  0.12378959176702407        0.0000000000000000     
   6.6724693520051656E-002  0.13125259148652318        0.0000000000000000     
   6.8152194788065723E-002  0.13893573118730312        0.0000000000000000     
   9.9147900524011540E-002  0.14225904827934621        0.0000000000000000     
  0.10180774275815727       0.15066588766205985        0.0000000000000000     
  0.10462265208641564       0.15999140791773750        0.0000000000000000     
  0.10759262850878658       0.17023560904637919        0.0000000000000000     
  0.11071767202527016       0.18139849104798494        0.0000000000000000     
   9.0636055347290301E-002  0.14148805979041584        0.0000000000000000     
   9.2788357836734156E-002  0.14981652410998514        0.0000000000000000     
   9.4982081594627038E-002  0.15889731671534768        0.0000000000000000     
   9.7217226620968919E-002  0.16873043760650341        0.0000000000000000     
   9.9493792915759813E-002  0.17931588678345234        0.0000000000000000     
   8.2632822665725580E-002  0.14067717744543187        0.0000000000000000     
   8.4401846484660287E-002  0.14890472213044287        0.0000000000000000     
   8.6145595199696529E-002  0.15773098476344019        0.0000000000000000     
   8.7864068810834389E-002  0.16715596534442384        0.0000000000000000     
   8.9557267318073827E-002  0.17717966387339384        0.0000000000000000     
   7.5138202479317392E-002  0.13982640124439430        0.0000000000000000     
   7.6648208701935644E-002  0.14793048172343304        0.0000000000000000     
   7.8113192901624162E-002  0.15649241206201508        0.0000000000000000     
   7.9533155078383044E-002  0.16551219226014058        0.0000000000000000     
   8.0908095232212207E-002  0.17498982231780938        0.0000000000000000     
   6.8152194788065723E-002  0.13893573118730312        0.0000000000000000     
   6.9527444488560228E-002  0.14689380288895559        0.0000000000000000     
   7.0884874700409925E-002  0.15518159861107239        0.0000000000000000     
   7.2224485423614829E-002  0.16379911835365352        0.0000000000000000     
   7.3546276658174925E-002  0.17274636211669897        0.0000000000000000     
   0.0000000000000000        0.0000000000000000        0.0000000000000000     
   2.8826300822554617E-003   1.7355611547440566E-003   0.0000000000000000     
   5.8774016412010766E-003   3.8470424897002076E-003   0.0000000000000000     
   8.9843146768368437E-003   6.3344440048684536E-003   0.0000000000000000     
   1.2203369189162760E-002   9.1977657002487948E-003   0.0000000000000000     
   0.0000000000000000        0.0000000000000000        0.0000000000000000     
   2.6105886276339939E-003   1.5801193260065627E-003   0.0000000000000000     
   5.2894792216224337E-003   3.5402500975254027E-003   0.0000000000000000     
   8.0366717819653176E-003   5.8803923145565196E-003   0.0000000000000000     
   1.0852166308662647E-002   8.6005459770999142E-003   0.0000000000000000     
   0.0000000000000000        0.0000000000000000        0.0000000000000000     
   2.3383919295805007E-003   1.4513332252491032E-003   0.0000000000000000     
   4.7156011306381286E-003   3.2858203752002906E-003   0.0000000000000000     
   7.1316276031728855E-003   5.5034614498535627E-003   0.0000000000000000     
   9.5864713471847680E-003   8.1042564492089190E-003   0.0000000000000000     
   0.0000000000000000        0.0000000000000000        0.0000000000000000     
   2.0660399880949826E-003   1.3492028524716780E-003   0.0000000000000000     
   4.1557673682481640E-003   3.0837533227248727E-003   0.0000000000000000     
   6.2691821404595414E-003   5.2036514107595844E-003   0.0000000000000000     
   8.4062843047291187E-003   7.7088971165758125E-003   0.0000000000000000     
   0.0000000000000000        0.0000000000000000        0.0000000000000000     
   1.7935328031774399E-003   1.2737282076742871E-003   0.0000000000000000     
   3.6099779344525369E-003   2.9340489400991481E-003   0.0000000000000000     
   5.4493353938252897E-003   4.9809621972745832E-003   0.0000000000000000     
   7.3116051812957012E-003   7.4144679792005931E-003   0.0000000000000000     
   1.2203369189162760E-002   9.1977657002487948E-003   0.0000000000000000     
   1.5437027762966448E-002   1.2334652377763820E-002   0.0000000000000000     
   1.8587752983035520E-002   1.5642748839336119E-002   0.0000000000000000     
   2.1655544849369986E-002   1.9122055084965697E-002   0.0000000000000000     
   2.4640403361969834E-002   2.2772571114652546E-002   0.0000000000000000     
   1.0852166308662647E-002   8.6005459770999142E-003   0.0000000000000000     
   1.3682358824957157E-002   1.1618081369110378E-002   0.0000000000000000     
   1.6473645354091578E-002   1.4850368774542709E-002   0.0000000000000000     
   1.9226025896065910E-002   1.8297408193396904E-002   0.0000000000000000     
   2.1939500450880153E-002   2.1959199625672964E-002   0.0000000000000000     
   9.5864713471847680E-003   8.1042564492089190E-003   0.0000000000000000     
   1.2056020103715518E-002   1.1020452529124765E-002   0.0000000000000000     
   1.4516161613806885E-002   1.4184296845459509E-002   0.0000000000000000     
   1.6966895877458862E-002   1.7595789398213154E-002   0.0000000000000000     
   1.9408222894671451E-002   2.1254930187385696E-002   0.0000000000000000     
   8.4062843047291187E-003   7.7088971165758125E-003   0.0000000000000000     
   1.0558011599241537E-002   1.0541765857806987E-002   0.0000000000000000     
   1.2715301762181445E-002   1.3644533052086528E-002   0.0000000000000000     
   1.4878154793548842E-002   1.7017198699414447E-002   0.0000000000000000     
   1.7046570693343727E-002   2.0659762799790735E-002   0.0000000000000000     
   7.3116051812957012E-003   7.4144679792005931E-003   0.0000000000000000     
   9.1883333115352107E-003   1.0182021355157035E-002   0.0000000000000000     
   1.1071065799215260E-002   1.3231077394423765E-002   0.0000000000000000     
   1.2959802644335851E-002   1.6561636097000784E-002   0.0000000000000000     
   1.4854543846896983E-002   2.0173697462888093E-002   0.0000000000000000     
   2.4640403361969834E-002   2.2772571114652546E-002   0.0000000000000000     
   2.7545793795143714E-002   2.6620244008999594E-002   0.0000000000000000     