 <VTKFile type="UnstructuredGrid"  version="0.1"   >
 <UnstructuredGrid>
 <Piece  NumberOfPoints="          1600 "  NumberOfCells="         1024 ">
 <Points>
 <DataArray  type="Float64" NumberOfComponents="3"  format="ascii" >
   0.0000000000000000        0.0000000000000000        0.0000000000000000     
   3.1250000000000000E-002   0.0000000000000000        0.0000000000000000     
   6.2500000000000000E-002   0.0000000000000000        0.0000000000000000     
   9.3750000000000000E-002   0.0000000000000000        0.0000000000000000     
  0.12500000000000000        0.0000000000000000        0.0000000000000000     
   0.0000000000000000        3.1250000000000000E-002   0.0000000000000000     
   3.1250000000000000E-002   3.1250000000000000E-002   0.0000000000000000     
   6.2500000000000000E-002   3.1250000000000000E-002   0.0000000000000000     
   9.3750000000000000E-002   3.1250000000000000E-002   0.0000000000000000     
  0.12500000000000000        3.1250000000000000E-002   0.0000000000000000     
   0.0000000000000000        6.2500000000000000E-002   0.0000000000000000     
   3.1250000000000000E-002   6.2500000000000000E-002   0.0000000000000000     
   6.2500000000000000E-002   6.2500000000000000E-002   0.0000000000000000     
   9.3750000000000000E-002   6.2500000000000000E-002   0.0000000000000000     
  0.12500000000000000        6.2500000000000000E-002   0.0000000000000000     
   0.0000000000000000        9.3750000000000000E-002   0.0000000000000000     
   3.1250000000000000E-002   9.3750000000000000E-002   0.0000000000000000     
   6.2500000000000000E-002   9.3750000000000000E-002   0.0000000000000000     
   9.3750000000000000E-002   9.3750000000000000E-002   0.0000000000000000     
  0.12500000000000000        9.3750000000000000E-002   0.0000000000000000     
   0.0000000000000000       0.12500000000000000        0.0000000000000000     
   3.1250000000000000E-002  0.12500000000000000        0.0000000000000000     
   6.2500000000000000E-002  0.12500000000000000        0.0000000000000000     
   9.3750000000000000E-002  0.12500000000000000        0.0000000000000000     
  0.12500000000000000       0.12500000000000000        0.0000000000000000     
  0.12500000000000000        0.0000000000000000        0.0000000000000000     
  0.15625000000000000        0.0000000000000000        0.0000000000000000     
  0.18750000000000000        0.0000000000000000        0.0000000000000000     
  0.21875000000000000        0.0000000000000000        0.0000000000000000     
  0.25000000000000000        0.0000000000000000        0.0000000000000000     
  0.12500000000000000        3.1250000000000000E-002   0.0000000000000000     
  0.15625000000000000        3.1250000000000000E-002   0.0000000000000000     
  0.18750000000000000        3.1250000000000000E-002   0.0000000000000000     
  0.21875000000000000        3.1250000000000000E-002   0.0000000000000000     
  0.25000000000000000        3.1250000000000000E-002   0.0000000000000000     
  0.12500000000000000        6.2500000000000000E-002   0.0000000000000000     
  0.15625000000000000        6.2500000000000000E-002   0.0000000000000000     
  0.18750000000000000        6.2500000000000000E-002   0.0000000000000000     
  0.21875000000000000        6.2500000000000000E-002   0.0000000000000000     
  0.25000000000000000        6.2500000000000000E-002   0.0000000000000000     
  0.12500000000000000        9.3750000000000000E-002   0.0000000000000000     
  0.15625000000000000        9.3750000000000000E-002   0.0000000000000000     
  0.18750000000000000        9.3750000000000000E-002   0.0000000000000000     
  0.21875000000000000        9.3750000000000000E-002   0.0000000000000000     
  0.25000000000000000        9.3750000000000000E-002   0.0000000000000000     
  0.12500000000000000       0.12500000000000000        0.0000000000000000     
  0.15625000000000000       0.12500000000000000        0.0000000000000000     
  0.18750000000000000       0.12500000000000000        0.0000000000000000     
  0.21875000000000000       0.12500000000000000        0.0000000000000000     
  0.25000000000000000       0.12500000000000000        0.0000000000000000     
  0.25000000000000000        0.0000000000000000        0.0000000000000000     
  0.28125000000000000        0.0000000000000000        0.0000000000000000     
  0.31250000000000000        0.0000000000000000        0.0000000000000000     
  0.34375000000000000        0.0000000000000000        0.0000000000000000     
  0.37500000000000000        0.0000000000000000        0.0000000000000000     
  0.25000000000000000        3.1250000000000000E-002   0.0000000000000000     
  0.28125000000000000        3.1250000000000000E-002   0.0000000000000000     
  0.31250000000000000        3.1250000000000000E-002   0.0000000000000000     
  0.34375000000000000        3.1250000000000000E-002   0.0000000000000000     
  0.37500000000000000        3.1250000000000000E-002   0.0000000000000000     
  0.25000000000000000        6.2500000000000000E-002   0.0000000000000000     
  0.28125000000000000        6.2500000000000000E-002   0.0000000000000000     
  0.31250000000000000        6.2500000000000000E-002   0.0000000000000000     
  0.34375000000000000        6.2500000000000000E-002   0.0000000000000000     
  0.37500000000000000        6.2500000000000000E-002   0.0000000000000000     
  0.25000000000000000        9.3750000000000000E-002   0.0000000000000000     
  0.28125000000000000        9.3750000000000000E-002   0.0000000000000000     
  0.31250000000000000        9.3750000000000000E-002   0.0000000000000000     
  0.34375000000000000        9.3750000000000000E-002   0.0000000000000000     
  0.37500000000000000        9.3750000000000000E-002   0.0000000000000000     
  0.25000000000000000       0.12500000000000000        0.0000000000000000     
  0.28125000000000000       0.12500000000000000        0.0000000000000000     
  0.31250000000000000       0.12500000000000000        0.0000000000000000     
  0.34375000000000000       0.12500000000000000        0.0000000000000000     
  0.37500000000000000       0.12500000000000000        0.0000000000000000     
  0.37500000000000000        0.0000000000000000        0.0000000000000000     
  0.40625000000000000        0.0000000000000000        0.0000000000000000     
  0.43750000000000000        0.0000000000000000        0.0000000000000000     
  0.46875000000000000        0.0000000000000000        0.0000000000000000     
  0.50000000000000000        0.0000000000000000        0.0000000000000000     
  0.37500000000000000        3.1250000000000000E-002   0.0000000000000000     
  0.40625000000000000        3.1250000000000000E-002   0.0000000000000000     
  0.43750000000000000        3.1250000000000000E-002   0.0000000000000000     
  0.46875000000000000        3.1250000000000000E-002   0.0000000000000000     
  0.50000000000000000        3.1250000000000000E-002   0.0000000000000000     
  0.37500000000000000        6.2500000000000000E-002   0.0000000000000000     
  0.40625000000000000        6.2500000000000000E-002   0.0000000000000000     
  0.43750000000000000        6.2500000000000000E-002   0.0000000000000000     
  0.46875000000000000        6.2500000000000000E-002   0.0000000000000000     
  0.50000000000000000        6.2500000000000000E-002   0.0000000000000000     
  0.37500000000000000        9.3750000000000000E-002   0.0000000000000000     
  0.40625000000000000        9.3750000000000000E-002   0.0000000000000000     
  0.43750000000000000        9.3750000000000000E-002   0.0000000000000000     
  0.46875000000000000        9.3750000000000000E-002   0.0000000000000000     
  0.50000000000000000        9.3750000000000000E-002   0.0000000000000000     
  0.37500000000000000       0.12500000000000000        0.0000000000000000     
  0.40625000000000000       0.12500000000000000        0.0000000000000000     
  0.43750000000000000       0.12500000000000000        0.0000000000000000     
  0.46875000000000000       0.12500000000000000        0.0000000000000000     
  0.50000000000000000       0.12500000000000000        0.0000000000000000     
  0.50000000000000000        0.0000000000000000        0.0000000000000000     
  0.53125000000000000        0.0000000000000000        0.0000000000000000     
  0.56250000000000000        0.0000000000000000        0.0000000000000000     
  0.59375000000000000        0.0000000000000000        0.0000000000000000     
  0.62500000000000000        0.0000000000000000        0.0000000000000000     
  0.50000000000000000        3.1250000000000000E-002   0.0000000000000000     
  0.53125000000000000        3.1250000000000000E-002   0.0000000000000000     
  0.56250000000000000        3.1250000000000000E-002   0.0000000000000000     
  0.59375000000000000        3.1250000000000000E-002   0.0000000000000000     
  0.62500000000000000        3.1250000000000000E-002   0.0000000000000000     
  0.50000000000000000        6.2500000000000000E-002   0.0000000000000000     
  0.53125000000000000        6.2500000000000000E-002   0.0000000000000000     
  0.56250000000000000        6.2500000000000000E-002   0.0000000000000000     
  0.59375000000000000        6.2500000000000000E-002   0.0000000000000000     
  0.62500000000000000        6.2500000000000000E-002   0.0000000000000000     
  0.50000000000000000        9.3750000000000000E-002   0.0000000000000000     
  0.53125000000000000        9.3750000000000000E-002   0.0000000000000000     
  0.56250000000000000        9.3750000000000000E-002   0.0000000000000000     
  0.59375000000000000        9.3750000000000000E-002   0.0000000000000000     
  0.62500000000000000        9.3750000000000000E-002   0.0000000000000000     
  0.50000000000000000       0.12500000000000000        0.0000000000000000     
  0.53125000000000000       0.12500000000000000        0.0000000000000000     
  0.56250000000000000       0.12500000000000000        0.0000000000000000     
[...]
 <PointData>
 <DataArray  type="Float64" Name="disp" NumberOfComponents="3" format="ascii">
   0.0000000000000000        0.0000000000000000        0.0000000000000000     
   6.0958091867632097E-003   3.7666485264433798E-003   0.0000000000000000     
   1.1674885937671901E-002   7.2774968529082436E-003   0.0000000000000000     
   1.6737230252726078E-002   1.0532544979394591E-002   0.0000000000000000     
   2.1282842131925737E-002   1.3531792905902422E-002   0.0000000000000000     
   0.0000000000000000        0.0000000000000000        0.0000000000000000     
   4.8985566647866668E-003   2.9964099701864791E-003   0.0000000000000000     
   9.5947333055423859E-003   6.0093585203568880E-003   0.0000000000000000     
   1.4088529922267161E-002   9.0388456505112267E-003   0.0000000000000000     
   1.8379946514960988E-002   1.2084871360649495E-002   0.0000000000000000     
   0.0000000000000000        0.0000000000000000        0.0000000000000000     
   3.9647109031680974E-003   2.3981584692432138E-003   0.0000000000000000     
   7.9365486217352690E-003   5.0088215325621958E-003   0.0000000000000000     
   1.1915513155701513E-002   7.8319891899569453E-003   0.0000000000000000     
   1.5901604505066832E-002   1.0867661441427463E-002   0.0000000000000000     
   0.0000000000000000        0.0000000000000000        0.0000000000000000     
   3.2942719019075032E-003   1.9718940236135847E-003   0.0000000000000000     
   6.7003318862505481E-003   4.2758858895241680E-003   0.0000000000000000     
   1.0218179953029137E-002   6.9119755977317477E-003   0.0000000000000000     
   1.3847816102243267E-002   9.8801631482363268E-003   0.0000000000000000     
   0.0000000000000000        0.0000000000000000        0.0000000000000000     
   2.8872396610048817E-003   1.7176166332975918E-003   0.0000000000000000     
   5.8860830990882249E-003   3.8105515912428035E-003   0.0000000000000000     
   8.9965303142500279E-003   6.2788048738356347E-003   0.0000000000000000     
   1.2218581306490291E-002   9.1223764810760850E-003   0.0000000000000000     
   2.1282842131925737E-002   1.3531792905902422E-002   0.0000000000000000     
   2.5525223099339352E-002   1.6502519963399454E-002   0.0000000000000000     
   2.9677874679035390E-002   1.9672005482853402E-002   0.0000000000000000     
   3.3740796871013855E-002   2.3040249464264268E-002   0.0000000000000000     
   3.7713989675274735E-002   2.6607251907632051E-002   0.0000000000000000     
   1.8379946514960988E-002   1.2084871360649495E-002   0.0000000000000000     
   2.2508843257054878E-002   1.5213688474959472E-002   0.0000000000000000     
   2.6515080321979845E-002   1.8491549817628947E-002   0.0000000000000000     
   3.0398657709735873E-002   2.1918455388657908E-002   0.0000000000000000     
   3.4159575420322982E-002   2.5494405188046361E-002   0.0000000000000000     
   1.5901604505066832E-002   1.0867661441427463E-002   0.0000000000000000     
   1.9824988736463992E-002   1.4073521302873957E-002   0.0000000000000000     
   2.3615831916525765E-002   1.7407251790196632E-002   0.0000000000000000     
   2.7274134045252151E-002   2.0868852903395491E-002   0.0000000000000000     
   3.0799895122643139E-002   2.4458324642470539E-002   0.0000000000000000     
   1.3847816102243267E-002   9.8801631482363268E-003   0.0000000000000000     
   1.7473659537566688E-002   1.3082018447142900E-002   0.0000000000000000     
   2.0980129462673157E-002   1.6419111400556467E-002   0.0000000000000000     
   2.4367225877562664E-002   1.9891442008477027E-002   0.0000000000000000     
   2.7634948782235217E-002   2.3499010270904577E-002   0.0000000000000000     
   1.2218581306490291E-002   9.1223764810760850E-003   0.0000000000000000     
   1.5454855660362969E-002   1.2239179907766308E-002   0.0000000000000000     
   1.8607972960422010E-002   1.5527128648708447E-002   0.0000000000000000     
   2.1677933206667426E-002   1.8986222703902506E-002   0.0000000000000000     
   2.4664736399099205E-002   2.2616462073348487E-002   0.0000000000000000     
   3.7713989675274735E-002   2.6607251907632051E-002   0.0000000000000000     
   4.1622706106187235E-002   3.0387677112208588E-002   0.0000000000000000     
   4.5492199178120550E-002   3.4396189377245714E-002   0.0000000000000000     
   4.9322468891074667E-002   3.8632788702743434E-002   0.0000000000000000     
   5.3113515245049606E-002   4.3097475088701737E-002   0.0000000000000000     
   3.4159575420322982E-002   2.5494405188046361E-002   0.0000000000000000     
   3.7832749838421185E-002   2.9262054024860262E-002   0.0000000000000000     
   4.1453097348710548E-002   3.3264056708165568E-002   0.0000000000000000     
   4.5020617951191028E-002   3.7500413237962257E-002   0.0000000000000000     
   4.8535311645862680E-002   4.1971123614250351E-002   0.0000000000000000     
   3.0799895122643139E-002   2.4458324642470539E-002   0.0000000000000000     
   3.4227008258947644E-002   2.8229699051632546E-002   0.0000000000000000     
   3.7589366564414549E-002   3.2237008175092285E-002   0.0000000000000000     
   4.0886970039043860E-002   3.6480252012849761E-002   0.0000000000000000     
   4.4119818682835571E-002   4.0959430564904975E-002   0.0000000000000000     
   2.7634948782235217E-002   2.3499010270904577E-002   0.0000000000000000     
   3.0805481367766587E-002   2.7290612192525432E-002   0.0000000000000000     
   3.3901006825232567E-002   3.1315043778025888E-002   0.0000000000000000     
   3.6921525154633129E-002   3.5572305027405951E-002   0.0000000000000000     
   3.9867036355968298E-002   4.0062395940665615E-002   0.0000000000000000     
   2.4664736399099205E-002   2.2616462073348487E-002   0.0000000000000000     
   2.7568169164878031E-002   2.6444793447538924E-002   0.0000000000000000     
   3.0388018131164575E-002   3.0498163516966367E-002   0.0000000000000000     
   3.3124283297958849E-002   3.4776572281630815E-002   0.0000000000000000     
   3.5776964665260841E-002   3.9280019741532252E-002   0.0000000000000000     
   5.3113515245049606E-002   4.3097475088701737E-002   0.0000000000000000     
   5.6839691745217434E-002   4.7807961196076242E-002   0.0000000000000000     
   6.0475351896750226E-002   5.2781959685822555E-002   0.0000000000000000     
   6.4020495699647975E-002   5.8019470557940669E-002   0.0000000000000000     
   6.7475123153910702E-002   6.3520493812430606E-002   0.0000000000000000     
   4.8535311645862680E-002   4.1971123614250351E-002   0.0000000000000000     
   5.1998436880947838E-002   4.6697644404564850E-002   0.0000000000000000     
   5.5411252104668872E-002   5.1701432176440763E-002   0.0000000000000000     
   5.8773757317025797E-002   5.6982486929878076E-002   0.0000000000000000     
   6.2085952518018600E-002   6.2540808664876810E-002   0.0000000000000000     
   4.4119818682835571E-002   4.0959430564904975E-002   0.0000000000000000     
   4.7304984115918297E-002   4.5697411101842909E-002   0.0000000000000000     
   5.0459537958420654E-002   5.0717060894248558E-002   0.0000000000000000     
   5.3583480210342614E-002   5.6018379942121908E-002   0.0000000000000000     
   5.6676810871684205E-002   6.1601368245462952E-002   0.0000000000000000     
   3.9867036355968298E-002   4.0062395940665615E-002   0.0000000000000000     
   4.2759333450128854E-002   4.4807261287910426E-002   0.0000000000000000     
   4.5620209458005566E-002   4.9828845839245933E-002   0.0000000000000000     
   4.8449664379598453E-002   5.5127149594672152E-002   0.0000000000000000     
   5.1247698214907510E-002   6.0702172554189061E-002   0.0000000000000000     
   3.5776964665260841E-002   3.9280019741532252E-002   0.0000000000000000     
   3.8361484883579468E-002   4.4027194962767399E-002   0.0000000000000000     
   4.0893266603423621E-002   4.9036787011432915E-002   0.0000000000000000     
   4.3372309824793301E-002   5.4308795887528814E-002   0.0000000000000000     
   4.5798614547688507E-002   5.9843221591055096E-002   0.0000000000000000     
   6.7475123153910702E-002   6.3520493812430606E-002   0.0000000000000000     
   7.0842353422024801E-002   6.9253594427796855E-002   0.0000000000000000     
   7.4125305666476723E-002   7.5187337382543976E-002   0.0000000000000000     
   7.7323979887266442E-002   8.1321722676671954E-002   0.0000000000000000     
   8.0438376084393970E-002   8.7656750310180803E-002   0.0000000000000000     
   6.2085952518018600E-002   6.2540808664876810E-002   0.0000000000000000     
   6.5345081854016662E-002   6.8332880015616201E-002   0.0000000000000000     
   6.8548389471389359E-002   7.4315183616275537E-002   0.0000000000000000     
   7.1695875370136677E-002   8.0487719466854790E-002   0.0000000000000000     
   7.4787539550258617E-002   8.6850487567353959E-002   0.0000000000000000     
   5.6676810871684205E-002   6.1601368245462952E-002   0.0000000000000000     
   5.9737120336279391E-002   6.7418702111875034E-002   0.0000000000000000     
   6.2761998997962171E-002   7.3423057848961457E-002   0.0000000000000000     
   6.5751446856732496E-002   7.9614435456722213E-002   0.0000000000000000     
   6.8705463912590428E-002   8.5992834935157317E-002   0.0000000000000000     
   5.1247698214907510E-002   6.0702172554189061E-002   0.0000000000000000     
   5.4018468868812987E-002   6.6511060716573367E-002   0.0000000000000000     
   5.6766134246195130E-002   7.2510960080601761E-002   0.0000000000000000     
   5.9490694347053931E-002   7.8701870646274250E-002   0.0000000000000000     
   6.2192149171389405E-002   8.5083792413590834E-002   0.0000000000000000     
   4.5798614547688507E-002   5.9843221591055096E-002   0.0000000000000000     
   4.8189127451617429E-002   6.5609955829711172E-002   0.0000000000000000     
   5.0560795216088243E-002   7.1578890311196436E-002   0.0000000000000000     
   5.2913617841100942E-002   7.7750025035510872E-002   0.0000000000000000     
   5.5247595326655533E-002   8.4123360002654538E-002   0.0000000000000000     
   8.0438376084393970E-002   8.7656750310180803E-002   0.0000000000000000     
   8.3477695952713607E-002   9.4168983163800651E-002   0.0000000000000000     
   8.6451141187079653E-002  0.10083498411826169        0.0000000000000000     
   8.9358711787492121E-002  0.10765475317356391        0.0000000000000000     
   9.2200407753950983E-002  0.11462829032970730        0.0000000000000000     
   7.4787539550258617E-002   8.6850487567353959E-002   0.0000000000000000     
   7.7808906026002281E-002   9.3386001092878534E-002   0.0000000000000000     
   8.0745498811614733E-002  0.10007677321853392        0.0000000000000000     
   8.3597317907095972E-002  0.10692280394432016        0.0000000000000000     
   8.6364363312446027E-002  0.11392409327023720        0.0000000000000000     
   6.8705463912590428E-002   8.5992834935157317E-002   0.0000000000000000     
   7.1593255363667729E-002   9.2543939709513551E-002   0.0000000000000000     
   7.4384026408096146E-002   9.9253433205037711E-002   0.0000000000000000     
   7.7077777045875720E-002  0.10612131542172978        0.0000000000000000     
   7.9674507277006423E-002  0.11314758635958978        0.0000000000000000     
   6.2192149171389405E-002   8.5083792413590834E-002   0.0000000000000000     
   6.4830743965709939E-002   9.1642799013705700E-002   0.0000000000000000     
   6.7366723976523907E-002   9.8364964077773023E-002   0.0000000000000000     
   6.9800089203831323E-002  0.10525028760579282        0.0000000000000000     
   7.2130839647632200E-002  0.11229876959776505        0.0000000000000000     
   5.5247595326655533E-002   8.4123360002654538E-002   0.0000000000000000     
   5.7521371832128923E-002   9.0682579005454997E-002   0.0000000000000000     
   5.9693591516898015E-002   9.7411365836739899E-002   0.0000000000000000     
   6.1764254380962821E-002  0.10430972049650923        0.0000000000000000     
   6.3733360424323315E-002  0.11137764298476299        0.0000000000000000     
   9.2200407753950983E-002  0.11462829032970730        0.0000000000000000     
   9.4935139451760825E-002  0.12178018226269859        0.0000000000000000     
   9.7521817246226203E-002  0.12913501564854454        0.0000000000000000     
   9.9960441137347145E-002  0.13669279048724509        0.0000000000000000     
  0.10225101112512358       0.14445350677880031        0.0000000000000000     
   8.6364363312446027E-002  0.11392409327023720        0.0000000000000000     
   8.9035717356987926E-002  0.12111533920996947        0.0000000000000000     
   9.1600462370044725E-002  0.12853123977720135        0.0000000000000000     
   9.4058598351616410E-002  0.13617179497193282        0.0000000000000000     
   9.6410125301702981E-002  0.14403700479416393        0.0000000000000000     
   7.9674507277006423E-002  0.11314758635958978        0.0000000000000000     
   8.2180403992038076E-002  0.12036808367165219        0.0000000000000000     
   8.4601654081520414E-002  0.12781864501095147        0.0000000000000000     
   8.6938257545453437E-002  0.13549927037748766        0.0000000000000000     
   8.9190214383837174E-002  0.14340995977126075        0.0000000000000000     
   7.2130839647632200E-002  0.11229876959776505        0.0000000000000000     
   7.4369199356911261E-002  0.11953841564774675        0.0000000000000000     
   7.6525392380653270E-002  0.12699723134979493        0.0000000000000000     
   7.8599418718858255E-002  0.13467521670390964        0.0000000000000000     
   8.0591278371526173E-002  0.14257237171009077        0.0000000000000000     
   6.3733360424323315E-002  0.11137764298476299        0.0000000000000000     
   6.5602103451607496E-002  0.11862633513825319        0.0000000000000000     
   6.7371677267443322E-002  0.12606699879373173        0.0000000000000000     
   6.9042081871830807E-002  0.13369963395119866        0.0000000000000000     
   7.0613317264769951E-002  0.14152424061065400        0.0000000000000000     
  0.10225101112512358       0.14445350677880031        0.0000000000000000     
  0.10440757096127676       0.15237643235473369        0.0000000000000000     
  0.10644416439752782       0.16042083504656882        0.0000000000000000     
  0.10836079143387678       0.16858671485430565        0.0000000000000000     
  0.11015745207032361       0.17687407177794426        0.0000000000000000     
   9.6410125301702981E-002  0.14403700479416393        0.0000000000000000     
   9.8637416572631476E-002  0.15203657233900472        0.0000000000000000     
  0.10072284551672891       0.16008020070156531        0.0000000000000000     
  0.10266641213399524       0.16816788988184578        0.0000000000000000     
  0.10446811642443053       0.17629963987984598        0.0000000000000000     
   8.9190214383837174E-002  0.14340995977126075        0.0000000000000000     
   9.1326852140331441E-002  0.15145405297167264        0.0000000000000000     
   9.3317498358596027E-002  0.15953488975812527        0.0000000000000000     
   9.5162153038630931E-002  0.16765247013061862        0.0000000000000000     
   9.6860816180436154E-002  0.17580679408915276        0.0000000000000000     
   8.0591278371526173E-002  0.14257237171009077        0.0000000000000000     
   8.2475877664376626E-002  0.15062887425273741        0.0000000000000000     
   8.4228122923129159E-002  0.15878490221624858        0.0000000000000000     
   8.5848014147783785E-002  0.16704045560062428        0.0000000000000000     
   8.7335551338340492E-002  0.17539553440586450        0.0000000000000000     
   7.0613317264769951E-002  0.14152424061065400        0.0000000000000000     
   7.2084493144767031E-002  0.14956103618219907        0.0000000000000000     
   7.3454719210328312E-002  0.15783023807593533        0.0000000000000000     
   7.4723995461453807E-002  0.16633184629186271        0.0000000000000000     
   7.5892321898143517E-002  0.17506586082998127        0.0000000000000000     
   0.0000000000000000        0.0000000000000000        0.0000000000000000     
   2.8872396610048817E-003   1.7176166332975918E-003   0.0000000000000000     
   5.8860830990882249E-003   3.8105515912428035E-003   0.0000000000000000     
   8.9965303142500279E-003   6.2788048738356347E-003   0.0000000000000000     
   1.2218581306490291E-002   9.1223764810760850E-003   0.0000000000000000     
   0.0000000000000000        0.0000000000000000        0.0000000000000000     
   2.6119630759336258E-003   1.5633156377378428E-003   0.0000000000000000     
   5.2902557687479392E-003   3.5065161473212493E-003   0.0000000000000000     
   8.0348780784429419E-003   5.8296015287502192E-003   0.0000000000000000     
   1.0845830005018630E-002   8.5325717820247532E-003   0.0000000000000000     
   0.0000000000000000        0.0000000000000000        0.0000000000000000     
   2.3367910421671252E-003   1.4369803763769453E-003   0.0000000000000000     
   4.7093034037293362E-003   3.2574770673626506E-003   0.0000000000000000     
   7.1175370846866285E-003   5.4614900729571154E-003   0.0000000000000000     
   9.5614920850390066E-003   8.0490193931603404E-003   0.0000000000000000     
   0.0000000000000000        0.0000000000000000        0.0000000000000000     
   2.0617235597053815E-003   1.3386108492148994E-003   0.0000000000000000     
   4.1432260040324123E-003   3.0634343513670074E-003   0.0000000000000000     
   6.2445073329810913E-003   5.1744705064563235E-003   0.0000000000000000     
   8.3655675465514178E-003   7.6717193144828473E-003   0.0000000000000000     
   0.0000000000000000        0.0000000000000000        0.0000000000000000     
   1.7867606285483935E-003   1.2682070562517059E-003   0.0000000000000000     
   3.5920235696571693E-003   2.9243879993343202E-003   0.0000000000000000     
   5.4157888233263268E-003   4.9685428292478434E-003   0.0000000000000000     
   7.2580563895558673E-003   7.4006715459922759E-003   0.0000000000000000     
   1.2218581306490291E-002   9.1223764810760850E-003   0.0000000000000000     
   1.5454855660362969E-002   1.2239179907766308E-002   0.0000000000000000     
   1.8607972960422010E-002   1.5527128648708447E-002   0.0000000000000000     
   2.1677933206667426E-002   1.8986222703902506E-002   0.0000000000000000     
   2.4664736399099205E-002   2.2616462073348487E-002   0.0000000000000000     
   1.0845830005018630E-002   8.5325717820247532E-003   0.0000000000000000     
   1.3668816725630487E-002   1.1533409069427259E-002   0.0000000000000000     
   1.6449543417433991E-002   1.4750095553240141E-002   0.0000000000000000     
   1.9188010080429137E-002   1.8182631233463403E-002   0.0000000000000000     
   2.1884216714615941E-002   2.1831016110097044E-002   0.0000000000000000     
   9.5614920850390066E-003   8.0490193931603404E-003   0.0000000000000000     
   1.2015782354146898E-002   1.0953109316808837E-002   0.0000000000000000     
   1.4455021841370739E-002   1.4106804132739117E-002   0.0000000000000000     
   1.6879210546710519E-002   1.7510103840951186E-002   0.0000000000000000     
   1.9288348470166250E-002   2.1163008441445037E-002   0.0000000000000000     
   8.3655675465514178E-003   7.6717193144828473E-003   0.0000000000000000     
   1.0495752545912201E-002   1.0498280649911044E-002   0.0000000000000000     
   1.2624408232232251E-002   1.3597254387205378E-002   0.0000000000000000     
   1.4751534605511561E-002   1.6968640526365854E-002   0.0000000000000000     
   1.6877131665750136E-002   2.0612439067392470E-002   0.0000000000000000     
   7.2580563895558673E-003   7.4006715459922759E-003   0.0000000000000000     
   9.1087273009263971E-003   1.0168923068733883E-002   0.0000000000000000     
   1.0957702590018529E-002   1.3221446316638928E-002   0.0000000000000000     
   1.2804982256832265E-002   1.6558241289707409E-002   0.0000000000000000     
   1.4650566301367600E-002   2.0179307987939335E-002   0.0000000000000000     
   2.4664736399099205E-002   2.2616462073348487E-002   0.0000000000000000     
   2.7568169164878031E-002   2.6444793447538924E-002   0.0000000000000000     