 <VTKFile type="UnstructuredGrid"  version="0.1"   >
 <UnstructuredGrid>
 <Piece  NumberOfPoints="          1600 "  NumberOfCells="         1024 ">
 <Points>
 <DataArray  type="Float64" NumberOfComponents="3"  format="ascii" >
   0.0000000000000000        0.0000000000000000        0.0000000000000000     
   3.1250000000000000E-002   0.0000000000000000        0.0000000000000000     
   6.2500000000000000E-002   0.0000000000000000        0.0000000000000000     
   9.3750000000000000E-002   0.0000000000000000        0.0000000000000000     
  0.12500000000000000        0.0000000000000000        0.0000000000000000     
   0.0000000000000000        3.1250000000000000E-002   0.0000000000000000     
   3.1250000000000000E-002   3.1250000000000000E-002   0.0000000000000000     
   6.2500000000000000E-002   3.1250000000000000E-002   0.0000000000000000     
   9.3750000000000000E-002   3.1250000000000000E-002   0.0000000000000000     
  0.12500000000000000        3.1250000000000000E-002   0.0000000000000000     
   0.0000000000000000        6.2500000000000000E-002   0.0000000000000000     
   3.1250000000000000E-002   6.2500000000000000E-002   0.0000000000000000     
   6.2500000000000000E-002   6.2500000000000000E-002   0.0000000000000000     
   9.3750000000000000E-002   6.2500000000000000E-002   0.0000000000000000     
  0.12500000000000000        6.2500000000000000E-002   0.0000000000000000     
   0.0000000000000000        9.3750000000000000E-002   0.0000000000000000     
   3.1250000000000000E-002   9.3750000000000000E-002   0.0000000000000000     
   6.2500000000000000E-002   9.3750000000000000E-002   0.0000000000000000     
   9.3750000000000000E-002   9.3750000000000000E-002   0.0000000000000000     
  0.12500000000000000        9.3750000000000000E-002   0.0000000000000000     
   0.0000000000000000       0.12500000000000000        0.0000000000000000     
   3.1250000000000000E-002  0.12500000000000000        0.0000000000000000     
   6.2500000000000000E-002  0.12500000000000000        0.0000000000000000     
   9.3750000000000000E-002  0.12500000000000000        0.0000000000000000     
  0.12500000000000000       0.12500000000000000        0.0000000000000000     
  0.12500000000000000        0.0000000000000000        0.0000000000000000     
  0.15625000000000000        0.0000000000000000        0.0000000000000000     
  0.18750000000000000        0.0000000000000000        0.0000000000000000     
  0.21875000000000000        0.0000000000000000        0.0000000000000000     
  0.25000000000000000        0.0000000000000000        0.0000000000000000     
  0.12500000000000000        3.1250000000000000E-002   0.0000000000000000     
  0.15625000000000000        3.1250000000000000E-002   0.0000000000000000     
  0.18750000000000000        3.1250000000000000E-002   0.0000000000000000     
  0.21875000000000000        3.1250000000000000E-002   0.0000000000000000     
  0.25000000000000000        3.1250000000000000E-002   0.0000000000000000     
  0.12500000000000000        6.2500000000000000E-002   0.0000000000000000     
  0.15625000000000000        6.2500000000000000E-002   0.0000000000000000     
  0.18750000000000000        6.2500000000000000E-002   0.0000000000000000     
  0.21875000000000000        6.2500000000000000E-002   0.0000000000000000     
  0.25000000000000000        6.2500000000000000E-002   0.0000000000000000     
  0.12500000000000000        9.3750000000000000E-002   0.0000000000000000     
  0.15625000000000000        9.3750000000000000E-002   0.0000000000000000     
  0.18750000000000000        9.3750000000000000E-002   0.0000000000000000     
  0.21875000000000000        9.3750000000000000E-002   0.0000000000000000     
  0.25000000000000000        9.3750000000000000E-002   0.0000000000000000     
  0.12500000000000000       0.12500000000000000        0.0000000000000000     
  0.15625000000000000       0.12500000000000000        0.0000000000000000     
  0.18750000000000000       0.12500000000000000        0.0000000000000000     
  0.21875000000000000       0.12500000000000000        0.0000000000000000     
  0.25000000000000000       0.12500000000000000        0.0000000000000000     
  0.25000000000000000        0.0000000000000000        0.0000000000000000     
  0.28125000000000000        0.0000000000000000        0.0000000000000000     
  0.31250000000000000        0.0000000000000000        0.0000000000000000     
  0.34375000000000000        0.0000000000000000        0.0000000000000000     
  0.37500000000000000        0.0000000000000000        0.0000000000000000     
  0.25000000000000000        3.1250000000000000E-002   0.0000000000000000     
  0.28125000000000000        3.1250000000000000E-002   0.0000000000000000     
  0.31250000000000000        3.1250000000000000E-002   0.0000000000000000     
  0.34375000000000000        3.1250000000000000E-002   0.0000000000000000     
  0.37500000000000000        3.1250000000000000E-002   0.0000000000000000     
  0.25000000000000000        6.2500000000000000E-002   0.0000000000000000     
  0.28125000000000000        6.2500000000000000E-002   0.0000000000000000     
  0.31250000000000000        6.2500000000000000E-002   0.0000000000000000     
  0.34375000000000000        6.2500000000000000E-002   0.0000000000000000     
  0.37500000000000000        6.2500000000000000E-002   0.0000000000000000     
  0.25000000000000000        9.3750000000000000E-002   0.0000000000000000     
  0.28125000000000000        9.3750000000000000E-002   0.0000000000000000     
  0.31250000000000000        9.3750000000000000E-002   0.0000000000000000     
  0.34375000000000000        9.3750000000000000E-002   0.0000000000000000     
  0.37500000000000000        9.3750000000000000E-002   0.0000000000000000     
  0.25000000000000000       0.12500000000000000        0.0000000000000000     
  0.28125000000000000       0.12500000000000000        0.0000000000000000     
  0.31250000000000000       0.12500000000000000        0.0000000000000000     
  0.34375000000000000       0.12500000000000000        0.0000000000000000     
  0.37500000000000000       0.12500000000000000        0.0000000000000000     
  0.37500000000000000        0.0000000000000000        0.0000000000000000     
  0.40625000000000000        0.0000000000000000        0.0000000000000000     
  0.43750000000000000        0.0000000000000000        0.0000000000000000     
  0.46875000000000000        0.0000000000000000        0.0000000000000000     
  0.50000000000000000        0.0000000000000000        0.0000000000000000     
  0.37500000000000000        3.1250000000000000E-002   0.0000000000000000     
  0.40625000000000000        3.1250000000000000E-002   0.0000000000000000     
  0.43750000000000000        3.1250000000000000E-002   0.0000000000000000     
  0.46875000000000000        3.1250000000000000E-002   0.0000000000000000     
  0.50000000000000000        3.1250000000000000E-002   0.0000000000000000     
  0.37500000000000000        6.2500000000000000E-002   0.0000000000000000     
  0.40625000000000000        6.2500000000000000E-002   0.0000000000000000     
  0.43750000000000000        6.2500000000000000E-002   0.0000000000000000     
  0.46875000000000000        6.2500000000000000E-002   0.0000000000000000     
  0.50000000000000000        6.2500000000000000E-002   0.0000000000000000     
  0.37500000000000000        9.3750000000000000E-002   0.0000000000000000     
  0.40625000000000000        9.3750000000000000E-002   0.0000000000000000     
  0.43750000000000000        9.3750000000000000E-002   0.0000000000000000     
  0.46875000000000000        9.3750000000000000E-002   0.0000000000000000     
  0.50000000000000000        9.3750000000000000E-002   0.0000000000000000     
  0.37500000000000000       0.12500000000000000        0.0000000000000000     
  0.40625000000000000       0.12500000000000000        0.0000000000000000     
  0.43750000000000000       0.12500000000000000        0.0000000000000000     
  0.46875000000000000       0.12500000000000000        0.0000000000000000     
  0.50000000000000000       0.12500000000000000        0.0000000000000000     
  0.50000000000000000        0.0000000000000000        0.0000000000000000     
  0.53125000000000000        0.0000000000000000        0.0000000000000000     
  0.56250000000000000        0.0000000000000000        0.0000000000000000     
  0.59375000000000000        0.0000000000000000        0.0000000000000000     
  0.62500000000000000        0.0000000000000000        0.0000000000000000     
  0.50000000000000000        3.1250000000000000E-002   0.0000000000000000     
  0.53125000000000000        3.1250000000000000E-002   0.0000000000000000     
  0.56250000000000000        3.1250000000000000E-002   0.0000000000000000     
  0.59375000000000000        3.1250000000000000E-002   0.0000000000000000     
  0.62500000000000000        3.1250000000000000E-002   0.0000000000000000     
  0.50000000000000000        6.2500000000000000E-002   0.0000000000000000     
  0.53125000000000000        6.2500000000000000E-002   0.0000000000000000     
  0.56250000000000000        6.2500000000000000E-002   0.0000000000000000     
  0.59375000000000000        6.2500000000000000E-002   0.0000000000000000     
  0.62500000000000000        6.2500000000000000E-002   0.0000000000000000     
  0.50000000000000000        9.3750000000000000E-002   0.0000000000000000     
  0.53125000000000000        9.3750000000000000E-002   0.0000000000000000     
  0.56250000000000000        9.3750000000000000E-002   0.0000000000000000     
  0.59375000000000000        9.3750000000000000E-002   0.0000000000000000     
  0.62500000000000000        9.3750000000000000E-002   0.0000000000000000     
  0.50000000000000000       0.12500000000000000        0.0000000000000000     
  0.53125000000000000       0.12500000000000000        0.0000000000000000     
  0.56250000000000000       0.12500000000000000        0.0000000000000000     
[...]
 <PointData>
 <DataArray  type="Float64" Name="disp" NumberOfComponents="3" format="ascii">
   0.0000000000000000        0.0000000000000000        0.0000000000000000     
  -7.9354490046463198E-004  -3.4816204494939436E-004   0.0000000000000000     
  -1.6864867137654982E-003  -6.8403893597298714E-004   0.0000000000000000     
  -2.6788254399025989E-003  -1.0076306730707786E-003   0.0000000000000000     
  -3.7705610788759340E-003  -1.3189372562427684E-003   0.0000000000000000     
   0.0000000000000000        0.0000000000000000        0.0000000000000000     
  -7.8150717274978482E-004  -2.3036413685548990E-004   0.0000000000000000     
  -1.5854578597406747E-003  -4.8045139729578781E-004   0.0000000000000000     
  -2.4118520609726695E-003  -7.5026178132089373E-004   0.0000000000000000     
  -3.2606897764457703E-003  -1.0397952889308077E-003   0.0000000000000000     
   0.0000000000000000        0.0000000000000000        0.0000000000000000     
  -7.4863714708690377E-004  -1.3423121905062834E-004   0.0000000000000000     
  -1.4734090261418460E-003  -3.1338409974307919E-004   0.0000000000000000     
  -2.1743156371648261E-003  -5.3745864207735254E-004   0.0000000000000000     
  -2.8513569801558447E-003  -8.0645484605344840E-004   0.0000000000000000     
   0.0000000000000000        0.0000000000000000        0.0000000000000000     
  -6.9493482347598935E-004  -5.9763291534809684E-005   0.0000000000000000     
  -1.3503402129690120E-003  -1.8283704331486128E-004   0.0000000000000000     
  -1.9662161684790686E-003  -3.6922125534015482E-004   0.0000000000000000     
  -2.5425626900061576E-003  -6.1891592761069035E-004   0.0000000000000000     
   0.0000000000000000        0.0000000000000000        0.0000000000000000     
  -6.2040020191704115E-004  -6.9603543080338849E-006   0.0000000000000000     
  -1.2162514202221730E-003  -8.8810228011134128E-005   0.0000000000000000     
  -1.7875536549153959E-003  -2.4554962110930078E-004   0.0000000000000000     
  -2.3343069059967095E-003  -4.7717853360253372E-004   0.0000000000000000     
  -3.7705610788759340E-003  -1.3189372562427684E-003   0.0000000000000000     
  -4.7772892408263932E-003  -1.6443634022097818E-003   0.0000000000000000     
  -5.5146055358948655E-003  -2.0103138276926437E-003   0.0000000000000000     
  -5.9825099640813534E-003  -2.4167885326913537E-003   0.0000000000000000     
  -6.1810025253858543E-003  -2.8637875172059127E-003   0.0000000000000000     
  -3.2606897764457703E-003  -1.0397952889308077E-003   0.0000000000000000     
  -4.1033425527587965E-003  -1.3617500887075358E-003   0.0000000000000000     
  -4.9111819365105702E-003  -1.7288243492330844E-003   0.0000000000000000     
  -5.6842079277010906E-003  -2.1410180705074533E-003   0.0000000000000000     
  -6.4224205263303576E-003  -2.5983312525306437E-003   0.0000000000000000     
  -2.8513569801558447E-003  -8.0645484605344840E-004   0.0000000000000000     
  -3.5725947445431824E-003  -1.1165761881640668E-003   0.0000000000000000     
  -4.4060906197551201E-003  -1.4640261449019082E-003   0.0000000000000000     
  -5.3518446057916587E-003  -1.8488047162669729E-003   0.0000000000000000     
  -6.4098567026527938E-003  -2.2709119022592604E-003   0.0000000000000000     
  -2.5425626900061576E-003  -6.1891592761069035E-004   0.0000000000000000     
  -3.1850458161795502E-003  -9.0884170057937475E-004   0.0000000000000000     
  -3.9993315856285162E-003  -1.2159192146991150E-003   0.0000000000000000     
  -4.9854199983530544E-003  -1.5401484699699107E-003   0.0000000000000000     
  -6.1433110543531655E-003  -1.8815294663917625E-003   0.0000000000000000     
  -2.3343069059967095E-003  -4.7717853360253372E-004   0.0000000000000000     
  -2.9406957676679011E-003  -7.3854662595345929E-004   0.0000000000000000     
  -3.6909048341307576E-003  -9.8450355862470407E-004   0.0000000000000000     
  -4.5849341053852801E-003  -1.2150493316162676E-003   0.0000000000000000     
  -5.6227835814314673E-003  -1.4301839449281503E-003   0.0000000000000000     
  -6.1810025253858543E-003  -2.8637875172059127E-003   0.0000000000000000     
  -6.6095451071801871E-003  -3.1676627117137482E-003   0.0000000000000000     
  -7.7675995968361708E-003  -3.1447660466922896E-003   0.0000000000000000     
  -9.6551659943538062E-003  -2.7950975221415360E-003   0.0000000000000000     
  -1.2272244299733092E-002  -2.1186571380614888E-003   0.0000000000000000     
  -6.4224205263303576E-003  -2.5983312525306437E-003   0.0000000000000000     
  -7.2102620342901266E-003  -2.9156783116057660E-003   0.0000000000000000     
  -8.1321747534721465E-003  -2.9079736640359316E-003   0.0000000000000000     
  -9.1881586838764226E-003  -2.5752173098211413E-003   0.0000000000000000     
  -1.0378213825502948E-002  -1.9174092489613950E-003   0.0000000000000000     
  -6.4098567026527938E-003  -2.2709119022592604E-003   0.0000000000000000     
  -7.4004163848792820E-003  -2.5863322543047493E-003   0.0000000000000000     
  -8.1438131270118626E-003  -2.6510503238294184E-003   0.0000000000000000     
  -8.6400469290505398E-003  -2.4650661108332685E-003   0.0000000000000000     
  -8.8891177909953111E-003  -2.0283796153162986E-003   0.0000000000000000     
  -6.1433110543531655E-003  -1.8815294663917625E-003   0.0000000000000000     
  -7.1800081589476509E-003  -2.1796245398106994E-003   0.0000000000000000     
  -7.8025147174553165E-003  -2.3739960260727509E-003   0.0000000000000000     
  -8.0108307298761613E-003  -2.4646439251779172E-003   0.0000000000000000     
  -7.8049561962101853E-003  -2.4515682371261988E-003   0.0000000000000000     
  -5.6227835814314673E-003  -1.4301839449281503E-003   0.0000000000000000     
  -6.5490373564952376E-003  -1.6955551681236160E-003   0.0000000000000000     
  -7.1082795248025108E-003  -2.0768107707659291E-003   0.0000000000000000     
  -7.3005100863532861E-003  -2.5739507528550888E-003   0.0000000000000000     
  -7.1257290411475636E-003  -3.1869751143910963E-003   0.0000000000000000     
  -1.2272244299733092E-002  -2.1186571380614888E-003   0.0000000000000000     
  -1.4673724480013212E-002  -2.3854397710094304E-003   0.0000000000000000     
  -1.5914496502233352E-002  -4.8654402975426446E-003   0.0000000000000000     
  -1.5994560366393507E-002  -9.5586587176611313E-003   0.0000000000000000     
  -1.4913916072493679E-002  -1.6465095031364892E-002   0.0000000000000000     
  -1.0378213825502948E-002  -1.9174092489613950E-003   0.0000000000000000     
  -1.1530643411576546E-002  -2.1961639605307753E-003   0.0000000000000000     
  -1.2473750675322024E-002  -4.6730959236033643E-003   0.0000000000000000     
  -1.3207535616739388E-002  -9.3482051381791609E-003   0.0000000000000000     
  -1.3731998235828633E-002  -1.6221491604258169E-002   0.0000000000000000     
  -8.8891177909953111E-003  -2.0283796153162986E-003   0.0000000000000000     
  -9.2321843249599002E-003  -2.4089020406916841E-003   0.0000000000000000     
  -1.0010405143058017E-002  -4.6745445903725999E-003   0.0000000000000000     
  -1.1223780245289666E-002  -8.8253072643590478E-003   0.0000000000000000     
  -1.2872309631654845E-002  -1.4861190062651027E-002   0.0000000000000000     
  -7.8049561962101853E-003  -2.4515682371261988E-003   0.0000000000000000     
  -7.7783472201632771E-003  -3.0236540114921577E-003   0.0000000000000000     
  -8.5244599054413277E-003  -4.8697862978503547E-003   0.0000000000000000     
  -1.0043294252044341E-002  -7.9899650962007920E-003   0.0000000000000000     
  -1.2334850259972311E-002  -1.2384190406543471E-002   0.0000000000000000     
  -7.1257290411475636E-003  -3.1869751143910963E-003   0.0000000000000000     
  -7.1691320971866770E-003  -4.0404198729321944E-003   0.0000000000000000     
  -8.0159149624719605E-003  -5.2588210460366280E-003   0.0000000000000000     
  -9.6660776370034122E-003  -6.8421786337043980E-003   0.0000000000000000     
  -1.2119620120781032E-002  -8.7904926359355026E-003   0.0000000000000000     
  -1.4913916072493679E-002  -1.6465095031364892E-002   0.0000000000000000     
  -1.2631341476060974E-002  -2.0979093869779104E-002   0.0000000000000000     
  -9.1056144326224983E-003  -1.8494999864028930E-002   0.0000000000000000     
  -4.3367349421782539E-003  -9.0128130141143847E-003   0.0000000000000000     
   1.6752969952717632E-003   7.4674666799645420E-003   0.0000000000000000     
  -1.3731998235828633E-002  -1.6221491604258169E-002   0.0000000000000000     
  -1.4063306842031895E-002  -2.0761327207249537E-002   0.0000000000000000     
  -1.4217629744791307E-002  -1.8436083832562435E-002   0.0000000000000000     
  -1.4194966944106862E-002  -9.2457614801968544E-003   0.0000000000000000     
  -1.3995318439978565E-002   6.8096398498471954E-003   0.0000000000000000     
  -1.2872309631654845E-002  -1.4861190062651027E-002   0.0000000000000000     
  -1.4919497527205720E-002  -1.8893210649857085E-002   0.0000000000000000     
  -1.7328848156994456E-002  -1.7032386690585773E-002   0.0000000000000000     
  -2.0100361521021050E-002  -9.2787181848370936E-003   0.0000000000000000     
  -2.3234037619285504E-002   4.3677948673889544E-003   0.0000000000000000     
  -1.2334850259972311E-002  -1.2384190406543471E-002   0.0000000000000000     
  -1.5199913531582445E-002  -1.5374744197601738E-002   0.0000000000000000     
  -1.8439269669231945E-002  -1.4283908438098947E-002   0.0000000000000000     
  -2.2052918672920821E-002  -9.1116831280351005E-003   0.0000000000000000     
  -2.6040860542649064E-002   1.4193173258980661E-004   0.0000000000000000     
  -1.2119620120781032E-002  -8.7904926359355026E-003   0.0000000000000000     
  -1.4904554855162074E-002  -1.0205927850483501E-002   0.0000000000000000     
  -1.7548894281503788E-002  -1.0190649075101959E-002   0.0000000000000000     
  -2.0052638399806172E-002  -8.7446563097908735E-003   0.0000000000000000     
  -2.2415787210069232E-002  -5.8679495545502433E-003   0.0000000000000000     
   1.6752969952717632E-003   7.4674666799645420E-003   0.0000000000000000     
   6.2961104178665094E-003   2.4201404647655505E-002   0.0000000000000000     
   6.8913343637449446E-003   3.4444566318406152E-002   0.0000000000000000     
   3.4609688329070684E-003   3.8196951692216485E-002   0.0000000000000000     
  -3.9949861746471195E-003   3.5458560769086517E-002   0.0000000000000000     
  -1.3995318439978565E-002   6.8096398498471954E-003   0.0000000000000000     
  -1.4066392451040849E-002   2.2080342466725987E-002   0.0000000000000000     
  -1.4855897195928135E-002   2.8916568679595783E-002   0.0000000000000000     
  -1.6363832674640439E-002   2.7318318488456571E-002   0.0000000000000000     
  -1.8590198887177743E-002   1.7285591893308368E-002   0.0000000000000000     
  -2.3234037619285504E-002   4.3677948673889544E-003   0.0000000000000000     
  -2.5912009608617784E-002   1.6655100194827088E-002   0.0000000000000000     
  -2.7316410645847819E-002   2.0331145526212017E-002   0.0000000000000000     
  -2.7447240730975632E-002   1.5395930861543741E-002   0.0000000000000000     
  -2.6304499864001202E-002   1.8494562008222635E-003   0.0000000000000000     
  -2.6040860542649064E-002   1.4193173258980661E-004   0.0000000000000000     
  -2.9240741054864287E-002   7.9256778319587839E-003   0.0000000000000000     
  -3.0490205986014096E-002   8.6882968582548438E-003   0.0000000000000000     
  -2.9789255336098511E-002   2.4297888114779812E-003   0.0000000000000000     
  -2.7137889105117510E-002  -1.0849846308371795E-002   0.0000000000000000     
  -2.2415787210069232E-002  -5.8679495545502433E-003   0.0000000000000000     
  -2.4052586789780367E-002  -4.1079246218789153E-003   0.0000000000000000     
  -2.4377283216426980E-002  -6.0119773242757347E-003   0.0000000000000000     
  -2.3389876490009082E-002  -1.1580107661740700E-002   0.0000000000000000     
  -2.1090366610526656E-002  -2.0812315634273815E-002   0.0000000000000000     
  -3.9949861746471195E-003   3.5458560769086517E-002   0.0000000000000000     
  -8.0597897491411427E-003   3.0281822853397027E-002   0.0000000000000000     
  -1.3167009807985104E-003   2.6719167249528809E-002   0.0000000000000000     
   1.6234280130380762E-002   2.4770593957481872E-002   0.0000000000000000     
   4.4593153584396687E-002   2.4436102977256208E-002   0.0000000000000000     
  -1.8590198887177743E-002   1.7285591893308368E-002   0.0000000000000000     
  -1.7468338431129743E-002   6.7762718057755465E-003   0.0000000000000000     
  -8.9315939040861166E-003   3.7482411374824809E-003   0.0000000000000000     
   7.0200346939531342E-003   8.2014998884291819E-003   0.0000000000000000     
   3.0386547362988001E-002   2.0136048058615644E-002   0.0000000000000000     
  -2.6304499864001202E-002   1.8494562008222635E-003   0.0000000000000000     
  -2.2176307873627427E-002  -1.0748893218630970E-002   0.0000000000000000     
  -1.3350784588557166E-002  -1.2839732159494530E-002   0.0000000000000000     
   1.7206999120957845E-004  -4.4230606217684088E-003   0.0000000000000000     
   1.8392255865672807E-002   1.4501121394547387E-002   0.0000000000000000     
  -2.7137889105117510E-002  -1.0849846308371795E-002   0.0000000000000000     
  -2.2183698076634197E-002  -2.2293672219822522E-002   0.0000000000000000     
  -1.4574273034211655E-002  -2.3044752641402218E-002   0.0000000000000000     
  -4.3096139778498908E-003  -1.3103087573110898E-002   0.0000000000000000     
   8.6102790924510956E-003   7.5313229850514449E-003   0.0000000000000000     
  -2.1090366610526656E-002  -2.0812315634273815E-002   0.0000000000000000     
  -1.7490509040150044E-002  -2.7858065197799105E-002   0.0000000000000000     
  -1.2602059241049589E-002  -2.6866820308240592E-002   0.0000000000000000     
  -6.4250172132252776E-003  -1.7838580965598289E-002   0.0000000000000000     
   1.0406170433228815E-003  -7.7334716987218811E-004   0.0000000000000000     
   4.4593153584396687E-002   2.4436102977256208E-002   0.0000000000000000     
   6.9682086593572640E-002   2.5806434930516906E-002   0.0000000000000000     
   7.7423246370232054E-002   2.8972330438929043E-002   0.0000000000000000     
   6.7816632914374883E-002   3.3933789502492623E-002   0.0000000000000000     
   4.0862246226001153E-002   4.0690812121207641E-002   0.0000000000000000     
   3.0386547362988001E-002   2.0136048058615644E-002   0.0000000000000000     
   4.9434946524630402E-002   3.2157117068399639E-002   0.0000000000000000     
   5.2432234600492254E-002   3.6869938338138918E-002   0.0000000000000000     
   3.9378411590573550E-002   3.4274511867833486E-002   0.0000000000000000     
   1.0273477494874290E-002   2.4370837657483341E-002   0.0000000000000000     
   1.8392255865672807E-002   1.4501121394547387E-002   0.0000000000000000     
   3.2234926932031380E-002   3.2686708866028834E-002   0.0000000000000000     
   3.2625237087484160E-002   3.8887596769251867E-002   0.0000000000000000     
   1.9563186332031173E-002   3.3103785104216514E-002   0.0000000000000000     
  -6.9512253343276091E-003   1.5335273870922761E-002   0.0000000000000000     
   8.6102790924510956E-003   7.5313229850514449E-003   0.0000000000000000     
   1.8082027815775569E-002   2.7395210323404483E-002   0.0000000000000000     
   1.8002253831207786E-002   3.5025305732267913E-002   0.0000000000000000     
   8.3709571387477512E-003   3.0421609211641713E-002   0.0000000000000000     
  -1.0811862261604546E-002   1.3584120761525891E-002   0.0000000000000000     
   1.0406170433228815E-003  -7.7334716987218811E-004   0.0000000000000000     
   6.9762491758629808E-003   1.6282621440526616E-002   0.0000000000000000     
   8.5632848316631177E-003   2.5283065227187037E-002   0.0000000000000000     
   5.8017240107232819E-003   2.6227984190109077E-002   0.0000000000000000     
  -1.3084332869565188E-003   1.9117378329292733E-002   0.0000000000000000     
   0.0000000000000000        0.0000000000000000        0.0000000000000000     
  -6.2040020191704115E-004  -6.9603543080338849E-006   0.0000000000000000     
  -1.2162514202221730E-003  -8.8810228011134128E-005   0.0000000000000000     
  -1.7875536549153959E-003  -2.4554962110930078E-004   0.0000000000000000     
  -2.3343069059967095E-003  -4.7717853360253372E-004   0.0000000000000000     
   0.0000000000000000        0.0000000000000000        0.0000000000000000     
  -5.4019950050388649E-004   3.0313875070030088E-005   0.0000000000000000     
  -1.0820452527722821E-003  -1.9305124340449065E-005   0.0000000000000000     
  -1.6255372568051863E-003  -1.4885699823143748E-004   0.0000000000000000     
  -2.1706755126026001E-003  -3.5834174660293505E-004   0.0000000000000000     
   0.0000000000000000        0.0000000000000000        0.0000000000000000     
  -4.6949893733035287E-004   5.8195679039713274E-005   0.0000000000000000     
  -9.5862431549029203E-004   3.7676797188642521E-005   0.0000000000000000     
  -1.4673761344798175E-003  -6.1556645553212291E-005   0.0000000000000000     
  -1.9957543942989296E-003  -2.3950464918585116E-004   0.0000000000000000     
   0.0000000000000000        0.0000000000000000        0.0000000000000000     
  -4.0829851239644014E-004   7.6685057601015702E-005   0.0000000000000000     
  -8.4598860837620325E-004   8.2135536576140628E-005   0.0000000000000000     
  -1.3130702879392893E-003   1.6351436925374773E-005   0.0000000000000000     
  -1.8095435510856982E-003  -1.2066724135128183E-004   0.0000000000000000     
   0.0000000000000000        0.0000000000000000        0.0000000000000000     
  -3.5659822570214834E-004   8.5782010753937332E-005   0.0000000000000000     
  -7.4413813143001551E-004   1.1407109382204525E-004   0.0000000000000000     
  -1.1626197171836015E-003   8.4867249204323707E-005   0.0000000000000000     
  -1.6120429829629063E-003  -1.8295230992272497E-006   0.0000000000000000     
  -2.3343069059967095E-003  -4.7717853360253372E-004   0.0000000000000000     
  -2.9406957676679011E-003  -7.3854662595345929E-004   0.0000000000000000     
  -3.6909048341307576E-003  -9.8450355862470407E-004   0.0000000000000000     
  -4.5849341053852801E-003  -1.2150493316162676E-003   0.0000000000000000     
  -5.6227835814314673E-003  -1.4301839449281503E-003   0.0000000000000000     
  -2.1706755126026001E-003  -3.5834174660293505E-004   0.0000000000000000     
  -2.7559474446711991E-003  -5.8696132777250921E-004   0.0000000000000000     
  -3.4198404775176608E-003  -7.7391770005772722E-004   0.0000000000000000     
  -4.1623546111419843E-003  -9.1921086345858897E-004   0.0000000000000000     
  -4.9834898455441709E-003  -1.0228408179750945E-003   0.0000000000000000     
  -1.9957543942989296E-003  -2.3950464918585116E-004   0.0000000000000000     
  -2.5472036928524092E-003  -4.3535616952271257E-004   0.0000000000000000     
  -3.1251686280450389E-003  -5.8830016237723540E-004   0.0000000000000000     
  -3.7296491998768176E-003  -6.9833662774941953E-004   0.0000000000000000     
  -4.3606454083477460E-003  -7.6546556563926514E-004   0.0000000000000000     
  -1.8095435510856982E-003  -1.2066724135128183E-004   0.0000000000000000     
  -2.3144645122115319E-003  -2.8373115120406962E-004   0.0000000000000000     
  -2.8068892857128925E-003  -4.2765094558322897E-004   0.0000000000000000     
  -3.2868178715897796E-003  -5.5242662448875971E-004   0.0000000000000000     
  -3.7542502698421931E-003  -6.5805818792066221E-004   0.0000000000000000     
  -1.6120429829629063E-003  -1.8295230992272497E-006   0.0000000000000000     
  -2.0577299027485676E-003  -1.3208627281658018E-004   0.0000000000000000     
  -2.4650024505212219E-003  -2.9197004967570762E-004   0.0000000000000000     
  -2.8338606262808689E-003  -4.8148085367660950E-004   0.0000000000000000     
  -3.1643044300275103E-003  -7.0061868481928588E-004   0.0000000000000000     
  -5.6227835814314673E-003  -1.4301839449281503E-003   0.0000000000000000     
  -6.5490373564952376E-003  -1.6955551681236160E-003   0.0000000000000000     