 <VTKFile type="UnstructuredGrid"  version="0.1"   >
 <UnstructuredGrid>
 <Piece  NumberOfPoints="           400 "  NumberOfCells="          256 ">
 <Points>
 <DataArray  type="Float64" NumberOfComponents="3"  format="ascii" >
   0.0000000000000000        0.0000000000000000        0.0000000000000000     
   6.2500000000000000E-002   0.0000000000000000        0.0000000000000000     
  0.12500000000000000        0.0000000000000000        0.0000000000000000     
  0.18750000000000000        0.0000000000000000        0.0000000000000000     
  0.25000000000000000        0.0000000000000000        0.0000000000000000     
   0.0000000000000000        6.2500000000000000E-002   0.0000000000000000     
   6.2500000000000000E-002   6.2500000000000000E-002   0.0000000000000000     
  0.12500000000000000        6.2500000000000000E-002   0.0000000000000000     
  0.18750000000000000        6.2500000000000000E-002   0.0000000000000000     
  0.25000000000000000        6.2500000000000000E-002   0.0000000000000000     
   0.0000000000000000       0.12500000000000000        0.0000000000000000     
   6.2500000000000000E-002  0.12500000000000000        0.0000000000000000     
  0.12500000000000000       0.12500000000000000        0.0000000000000000     
  0.18750000000000000       0.12500000000000000        0.0000000000000000     
  0.25000000000000000       0.12500000000000000        0.0000000000000000     
   0.0000000000000000       0.18750000000000000        0.0000000000000000     
   6.2500000000000000E-002  0.18750000000000000        0.0000000000000000     
  0.12500000000000000       0.18750000000000000        0.0000000000000000     
  0.18750000000000000       0.18750000000000000        0.0000000000000000     
  0.25000000000000000       0.18750000000000000        0.0000000000000000     
   0.0000000000000000       0.25000000000000000        0.0000000000000000     
   6.2500000000000000E-002  0.25000000000000000        0.0000000000000000     
  0.12500000000000000       0.25000000000000000        0.0000000000000000     
  0.18750000000000000       0.25000000000000000        0.0000000000000000     
  0.25000000000000000       0.25000000000000000        0.0000000000000000     
  0.25000000000000000        0.0000000000000000        0.0000000000000000     
  0.31250000000000000        0.0000000000000000        0.0000000000000000     
  0.37500000000000000        0.0000000000000000        0.0000000000000000     
  0.43750000000000000        0.0000000000000000        0.0000000000000000     
  0.50000000000000000        0.0000000000000000        0.0000000000000000     
  0.25000000000000000        6.2500000000000000E-002   0.0000000000000000     
  0.31250000000000000        6.2500000000000000E-002   0.0000000000000000     
  0.37500000000000000        6.2500000000000000E-002   0.0000000000000000     
  0.43750000000000000        6.2500000000000000E-002   0.0000000000000000     
  0.50000000000000000        6.2500000000000000E-002   0.0000000000000000     
  0.25000000000000000       0.12500000000000000        0.0000000000000000     
  0.31250000000000000       0.12500000000000000        0.0000000000000000     
  0.37500000000000000       0.12500000000000000        0.0000000000000000     
  0.43750000000000000       0.12500000000000000        0.0000000000000000     
  0.50000000000000000       0.12500000000000000        0.0000000000000000     
  0.25000000000000000       0.18750000000000000        0.0000000000000000     
  0.31250000000000000       0.18750000000000000        0.0000000000000000     
  0.37500000000000000       0.18750000000000000        0.0000000000000000     
  0.43750000000000000       0.18750000000000000        0.0000000000000000     
  0.50000000000000000       0.18750000000000000        0.0000000000000000     
  0.25000000000000000       0.25000000000000000        0.0000000000000000     
  0.31250000000000000       0.25000000000000000        0.0000000000000000     
  0.37500000000000000       0.25000000000000000        0.0000000000000000     
  0.43750000000000000       0.25000000000000000        0.0000000000000000     
  0.50000000000000000       0.25000000000000000        0.0000000000000000     
  0.50000000000000000        0.0000000000000000        0.0000000000000000     
  0.56250000000000000        0.0000000000000000        0.0000000000000000     
  0.62500000000000000        0.0000000000000000        0.0000000000000000     
  0.68750000000000000        0.0000000000000000        0.0000000000000000     
  0.75000000000000000        0.0000000000000000        0.0000000000000000     
  0.50000000000000000        6.2500000000000000E-002   0.0000000000000000     
  0.56250000000000000        6.2500000000000000E-002   0.0000000000000000     
  0.62500000000000000        6.2500000000000000E-002   0.0000000000000000     
  0.68750000000000000        6.2500000000000000E-002   0.0000000000000000     
  0.75000000000000000        6.2500000000000000E-002   0.0000000000000000     
  0.50000000000000000       0.12500000000000000        0.0000000000000000     
  0.56250000000000000       0.12500000000000000        0.0000000000000000     
  0.62500000000000000       0.12500000000000000        0.0000000000000000     
  0.68750000000000000       0.12500000000000000        0.0000000000000000     
  0.75000000000000000       0.12500000000000000        0.0000000000000000     
  0.50000000000000000       0.18750000000000000        0.0000000000000000     
  0.56250000000000000       0.18750000000000000        0.0000000000000000     
  0.62500000000000000       0.18750000000000000        0.0000000000000000     
  0.68750000000000000       0.18750000000000000        0.0000000000000000     
  0.75000000000000000       0.18750000000000000        0.0000000000000000     
  0.50000000000000000       0.25000000000000000        0.0000000000000000     
  0.56250000000000000       0.25000000000000000        0.0000000000000000     
  0.62500000000000000       0.25000000000000000        0.0000000000000000     
  0.68750000000000000       0.25000000000000000        0.0000000000000000     
  0.75000000000000000       0.25000000000000000        0.0000000000000000     
  0.75000000000000000        0.0000000000000000        0.0000000000000000     
  0.81250000000000000        0.0000000000000000        0.0000000000000000     
  0.87500000000000000        0.0000000000000000        0.0000000000000000     
  0.93750000000000000        0.0000000000000000        0.0000000000000000     
   1.0000000000000000        0.0000000000000000        0.0000000000000000     
  0.75000000000000000        6.2500000000000000E-002   0.0000000000000000     
  0.81250000000000000        6.2500000000000000E-002   0.0000000000000000     
  0.87500000000000000        6.2500000000000000E-002   0.0000000000000000     
  0.93750000000000000        6.2500000000000000E-002   0.0000000000000000     
   1.0000000000000000        6.2500000000000000E-002   0.0000000000000000     
  0.75000000000000000       0.12500000000000000        0.0000000000000000     
  0.81250000000000000       0.12500000000000000        0.0000000000000000     
  0.87500000000000000       0.12500000000000000        0.0000000000000000     
  0.93750000000000000       0.12500000000000000        0.0000000000000000     
   1.0000000000000000       0.12500000000000000        0.0000000000000000     
  0.75000000000000000       0.18750000000000000        0.0000000000000000     
  0.81250000000000000       0.18750000000000000        0.0000000000000000     
  0.87500000000000000       0.18750000000000000        0.0000000000000000     
  0.93750000000000000       0.18750000000000000        0.0000000000000000     
   1.0000000000000000       0.18750000000000000        0.0000000000000000     
  0.75000000000000000       0.25000000000000000        0.0000000000000000     
  0.81250000000000000       0.25000000000000000        0.0000000000000000     
  0.87500000000000000       0.25000000000000000        0.0000000000000000     
  0.93750000000000000       0.25000000000000000        0.0000000000000000     
   1.0000000000000000       0.25000000000000000        0.0000000000000000     
   0.0000000000000000       0.25000000000000000        0.0000000000000000     
   6.2500000000000000E-002  0.25000000000000000        0.0000000000000000     
  0.12500000000000000       0.25000000000000000        0.0000000000000000     
  0.18750000000000000       0.25000000000000000        0.0000000000000000     
  0.25000000000000000       0.25000000000000000        0.0000000000000000     
   0.0000000000000000       0.31250000000000000        0.0000000000000000     
   6.2500000000000000E-002  0.31250000000000000        0.0000000000000000     
  0.12500000000000000       0.31250000000000000        0.0000000000000000     
  0.18750000000000000       0.31250000000000000        0.0000000000000000     
  0.25000000000000000       0.31250000000000000        0.0000000000000000     
   0.0000000000000000       0.37500000000000000        0.0000000000000000     
   6.2500000000000000E-002  0.37500000000000000        0.0000000000000000     
  0.12500000000000000       0.37500000000000000        0.0000000000000000     
  0.18750000000000000       0.37500000000000000        0.0000000000000000     
  0.25000000000000000       0.37500000000000000        0.0000000000000000     
   0.0000000000000000       0.43750000000000000        0.0000000000000000     
   6.2500000000000000E-002  0.43750000000000000        0.0000000000000000     
  0.12500000000000000       0.43750000000000000        0.0000000000000000     
  0.18750000000000000       0.43750000000000000        0.0000000000000000     
  0.25000000000000000       0.43750000000000000        0.0000000000000000     
   0.0000000000000000       0.50000000000000000        0.0000000000000000     
   6.2500000000000000E-002  0.50000000000000000        0.0000000000000000     
  0.12500000000000000       0.50000000000000000        0.0000000000000000     
[...]
 <PointData>
 <DataArray  type="Float64" Name="disp" NumberOfComponents="3" format="ascii">
   0.0000000000000000        0.0000000000000000        0.0000000000000000     
   1.0689154813587051E-002   6.3666257371949213E-003   0.0000000000000000     
   2.0500385835484594E-002   1.2956478407157173E-002   0.0000000000000000     
   2.9433693065692636E-002   1.9769558009886751E-002   0.0000000000000000     
   3.7489076504211162E-002   2.6805864545383661E-002   0.0000000000000000     
   0.0000000000000000        0.0000000000000000        0.0000000000000000     
   8.1743332263940760E-003   5.0274927239996811E-003   0.0000000000000000     
   1.5981221834089510E-002   1.0763672489384309E-002   0.0000000000000000     
   2.3420665823086301E-002   1.7208539296153888E-002   0.0000000000000000     
   3.0492665193384453E-002   2.4362093144308414E-002   0.0000000000000000     
   0.0000000000000000        0.0000000000000000        0.0000000000000000     
   6.1376643153432369E-003   4.0124415277302235E-003   0.0000000000000000     
   1.2245418827372361E-002   9.0813069257311887E-003   0.0000000000000000     
   1.8323263536087372E-002   1.5206596194002896E-002   0.0000000000000000     
   2.4371198441488266E-002   2.2388309332545344E-002   0.0000000000000000     
   0.0000000000000000        0.0000000000000000        0.0000000000000000     
   4.5791480804345374E-003   3.3214721483865494E-003   0.0000000000000000     
   9.2929768153331531E-003   7.9093817161978112E-003   0.0000000000000000     
   1.4141486204695842E-002   1.3763728703433781E-002   0.0000000000000000     
   1.9124676248522612E-002   2.0884513110094469E-002   0.0000000000000000     
   0.0000000000000000        0.0000000000000000        0.0000000000000000     
   3.4987845216679758E-003   2.9545845859686578E-003   0.0000000000000000     
   7.1238957979718812E-003   7.2478968607841716E-003   0.0000000000000000     
   1.0875333828911714E-002   1.2879936824446540E-002   0.0000000000000000     
   1.4753098614487479E-002   1.9850704476955763E-002   0.0000000000000000     
   3.7489076504211162E-002   2.6805864545383661E-002   0.0000000000000000     
   4.4927467626191653E-002   3.4394218401409847E-002   0.0000000000000000     
   5.2009797906785574E-002   4.2863439965727251E-002   0.0000000000000000     
   5.8736067345992925E-002   5.2213529238335880E-002   0.0000000000000000     
   6.5106275943813713E-002   6.2444486219235720E-002   0.0000000000000000     
   3.0492665193384453E-002   2.4362093144308414E-002   0.0000000000000000     
   3.7196318833808549E-002   3.2268024226496723E-002   0.0000000000000000     
   4.3530725633183193E-002   4.0970022735367664E-002   0.0000000000000000     
   4.9495885591508366E-002   5.0468088670921209E-002   0.0000000000000000     
   5.5091798708784091E-002   6.0762222033157384E-002   0.0000000000000000     
   2.4371198441488266E-002   2.2388309332545344E-002   0.0000000000000000     
   3.0230233488126791E-002   3.0476621221158743E-002   0.0000000000000000     
   3.5741378620554695E-002   3.9321706739643282E-002   0.0000000000000000     
   4.0904633838771957E-002   4.8923565887998968E-002   0.0000000000000000     
   4.5719999142778592E-002   5.9282198666225798E-002   0.0000000000000000     
   1.9124676248522612E-002   2.0884513110094469E-002   0.0000000000000000     
   2.4029211589146379E-002   2.9020009385395899E-002   0.0000000000000000     
   2.8641756868900067E-002   3.7918491978554125E-002   0.0000000000000000     
   3.2962312087783691E-002   4.7579960889569138E-002   0.0000000000000000     
   3.6990877245797228E-002   5.8004416118440927E-002   0.0000000000000000     
   1.4753098614487479E-002   1.9850704476955763E-002   0.0000000000000000     
   1.8593253136867306E-002   2.7898188719208194E-002   0.0000000000000000     
   2.2231860378219337E-002   3.6760378452100180E-002   0.0000000000000000     
   2.5668920338543563E-002   4.6437273675631725E-002   0.0000000000000000     
   2.8904433017839994E-002   5.6928874389802826E-002   0.0000000000000000     
   6.5106275943813713E-002   6.2444486219235720E-002   0.0000000000000000     
   7.1109059330777408E-002   7.3444494868137741E-002   0.0000000000000000     
   7.6733053137413548E-002   8.5101739144752886E-002   0.0000000000000000     
   8.1978257363722093E-002   9.7416219049081154E-002   0.0000000000000000     
   8.6844672009703056E-002  0.11038793458112257        0.0000000000000000     
   5.5091798708784091E-002   6.0762222033157384E-002   0.0000000000000000     
   6.0343919874704499E-002   7.1800059473761377E-002   0.0000000000000000     
   6.5277703978963764E-002   8.3529237644418358E-002   0.0000000000000000     
   6.9893151021561892E-002   9.5949756545128342E-002   0.0000000000000000     
   7.4190261002498842E-002  0.10906161617589130        0.0000000000000000     
   4.5719999142778592E-002   5.9282198666225798E-002   0.0000000000000000     
   5.0227563415946176E-002   7.0374525707993976E-002   0.0000000000000000     
   5.4467415541646282E-002   8.2177467646973743E-002   0.0000000000000000     
   5.8439555519878915E-002   9.4691024483165104E-002   0.0000000000000000     
   6.2143983350644076E-002  0.10791519621656802        0.0000000000000000     
   3.6990877245797228E-002   5.8004416118440927E-002   0.0000000000000000     
   4.0759989954502453E-002   6.9167893570835581E-002   0.0000000000000000     
   4.4302187825461095E-002   8.1046429152419108E-002   0.0000000000000000     
   4.7617470858673197E-002   9.3640022863191452E-002   0.0000000000000000     
   5.0705839054138724E-002  0.10694867470315274        0.0000000000000000     
   2.8904433017839994E-002   5.6928874389802826E-002   0.0000000000000000     
   3.1941199490373315E-002   6.8180163062286137E-002   0.0000000000000000     
   3.4782020830408225E-002   8.0136122160754344E-002   0.0000000000000000     
   3.7426897037944724E-002   9.2796751685207429E-002   0.0000000000000000     
   3.9875828112982806E-002  0.10616205163564540        0.0000000000000000     
   8.6844672009703056E-002  0.11038793458112257        0.0000000000000000     
   9.1310514605353527E-002  0.12393641097970824        0.0000000000000000     
   9.5354002680670624E-002  0.13798117348366928        0.0000000000000000     
   9.8975136235654307E-002  0.15252222209300578        0.0000000000000000     
  0.10217391527030459       0.16755955680771764        0.0000000000000000     
   7.4190261002498842E-002  0.10906161617589130        0.0000000000000000     
   7.8145629523584448E-002  0.12275302359049285        0.0000000000000000     
   8.1735852186628460E-002  0.13691218584271855        0.0000000000000000     
   8.4960928991630894E-002  0.15153910293256842        0.0000000000000000     
   8.7820859938591719E-002  0.16663377486004244        0.0000000000000000     
   6.2143983350644076E-002  0.10791519621656802        0.0000000000000000     
   6.5559696405319265E-002  0.12172136208135535        0.0000000000000000     
   6.8665692055282002E-002  0.13598090131169985        0.0000000000000000     
   7.1461970300532293E-002  0.15069381390760153        0.0000000000000000     
   7.3948531141070140E-002  0.16586009986906039        0.0000000000000000     
   5.0705839054138724E-002  0.10694867470315274        0.0000000000000000     
   5.3552715250557985E-002  0.12084142645229567        0.0000000000000000     
   5.6143522286631248E-002  0.13518731989061308        0.0000000000000000     
   5.8478260162358540E-002  0.14998635501810503        0.0000000000000000     
   6.0556928877739842E-002  0.16523853183477147        0.0000000000000000     
   3.9875828112982806E-002  0.10616205163564540        0.0000000000000000     
   4.2124686059300594E-002  0.12011321670331386        0.0000000000000000     
   4.4169342880676199E-002  0.13453144157945837        0.0000000000000000     
   4.6009798577109608E-002  0.14941672626407901        0.0000000000000000     
   4.7646053148600834E-002  0.16476907075717570        0.0000000000000000     
   0.0000000000000000        0.0000000000000000        0.0000000000000000     
   3.4987845216679758E-003   2.9545845859686578E-003   0.0000000000000000     
   7.1238957979718812E-003   7.2478968607841716E-003   0.0000000000000000     
   1.0875333828911714E-002   1.2879936824446540E-002   0.0000000000000000     
   1.4753098614487479E-002   1.9850704476955763E-002   0.0000000000000000     
   0.0000000000000000        0.0000000000000000        0.0000000000000000     
   2.6491436604303671E-003   2.7753604592505210E-003   0.0000000000000000     
   5.3455994962298466E-003   6.8924321937903774E-003   0.0000000000000000     
   8.0893675073984411E-003   1.2351215203619570E-002   0.0000000000000000     
   1.0880447693936146E-002   1.9151709488738101E-002   0.0000000000000000     
   0.0000000000000000        0.0000000000000000        0.0000000000000000     
   1.7827955181085268E-003   2.6473813870061102E-003   0.0000000000000000     
   3.5655116310483502E-003   6.6385675495165353E-003   0.0000000000000000     
   5.3481483388194695E-003   1.1973558487531271E-002   0.0000000000000000     
   7.1307056414218880E-003   1.8652354201050325E-002   0.0000000000000000     
   0.0000000000000000        0.0000000000000000        0.0000000000000000     
   8.9974009470245432E-004   2.5706473692354253E-003   0.0000000000000000     
   1.7836322024273896E-003   6.4863029279626410E-003   0.0000000000000000     
   2.6516763231748054E-003   1.1746966676181646E-002   0.0000000000000000     
   3.5038724569447025E-003   1.8352638613892445E-002   0.0000000000000000     
   0.0000000000000000        0.0000000000000000        0.0000000000000000     
  -2.2609787849793041E-008   2.5451584059384678E-003   0.0000000000000000     
  -3.8789633034904888E-008   6.4356383291286987E-003   0.0000000000000000     
  -4.8539535554142921E-008   1.1671439769570692E-002   0.0000000000000000     
  -5.1859495408916600E-008   1.8252562727264450E-002   0.0000000000000000     
   1.4753098614487479E-002   1.9850704476955763E-002   0.0000000000000000     
   1.8593253136867306E-002   2.7898188719208194E-002   0.0000000000000000     
   2.2231860378219337E-002   3.6760378452100180E-002   0.0000000000000000     
   2.5668920338543563E-002   4.6437273675631725E-002   0.0000000000000000     
   2.8904433017839994E-002   5.6928874389802826E-002   0.0000000000000000     
   1.0880447693936146E-002   1.9151709488738101E-002   0.0000000000000000     
   1.3641106978112695E-002   2.7063011202299897E-002   0.0000000000000000     
   1.6293612282197823E-002   3.5854216497458888E-002   0.0000000000000000     
   1.8837963606191523E-002   4.5525325374215081E-002   0.0000000000000000     
   2.1274160950093796E-002   5.6076337832568476E-002   0.0000000000000000     
   7.1307056414218880E-003   1.8652354201050325E-002   0.0000000000000000     
   8.8915219597056651E-003   2.6466328814375269E-002   0.0000000000000000     
   1.0608935714520869E-002   3.5206856451807676E-002   0.0000000000000000     
   1.2282946905867493E-002   4.4873937113347563E-002   0.0000000000000000     
   1.3913555533745545E-002   5.5467570798994913E-002   0.0000000000000000     
   3.5038724569447025E-003   1.8352638613892445E-002   0.0000000000000000     
   4.3444980816462137E-003   2.6108141555434311E-002   0.0000000000000000     
   5.1778306751884750E-003   3.4818298315146552E-002   0.0000000000000000     
   6.0038702375714856E-003   4.4483108893029151E-002   0.0000000000000000     
   6.8226167687952437E-003   5.5102573289082121E-002   0.0000000000000000     
  -5.1859495408916600E-008   1.8252562727264450E-002   0.0000000000000000     
   3.5343934343037148E-008   2.5988449425477032E-002   0.0000000000000000     
   2.9716420064387298E-007   3.4688542087475509E-002   0.0000000000000000     
   7.3360130349134117E-007   4.4352840713259872E-002   0.0000000000000000     
   1.3446552428889383E-006   5.4981345302830123E-002   0.0000000000000000     
   2.8904433017839994E-002   5.6928874389802826E-002   0.0000000000000000     
   3.1941199490373315E-002   6.8180163062286137E-002   0.0000000000000000     
   3.4782020830408225E-002   8.0136122160754344E-002   0.0000000000000000     
   3.7426897037944724E-002   9.2796751685207429E-002   0.0000000000000000     
   3.9875828112982806E-002  0.10616205163564540        0.0000000000000000     
   2.1274160950093796E-002   5.6076337832568476E-002   0.0000000000000000     
   2.3574204489131289E-002   6.7411823347269806E-002   0.0000000000000000     
   2.5710094398530635E-002   7.9436351393069829E-002   0.0000000000000000     
   2.7681830678291844E-002   9.2149921969968490E-002   0.0000000000000000     
   2.9489413328414905E-002  0.10555253507796585        0.0000000000000000     
   1.3913555533745545E-002   5.5467570798994913E-002   0.0000000000000000     
   1.5462017416348874E-002   6.6863363590710670E-002   0.0000000000000000     
   1.6889588371871326E-002   7.8936921570455718E-002   0.0000000000000000     
   1.8196268400312902E-002   9.1688244738230090E-002   0.0000000000000000     
   1.9382057501673603E-002  0.10511733309403382        0.0000000000000000     
   6.8226167687952437E-003   5.5102573289082121E-002   0.0000000000000000     
   7.6046382720260713E-003   6.6534783792608701E-002   0.0000000000000000     
   8.3205027504302913E-003   7.8637832692912066E-002   0.0000000000000000     
   8.9702102040078984E-003   9.1411719989992285E-002   0.0000000000000000     
   9.5537606327588953E-003  0.10485644568384930        0.0000000000000000     
   1.3446552428889383E-006   5.4981345302830123E-002   0.0000000000000000     
   2.0670561628861016E-006   6.6426083952963913E-002   0.0000000000000000     
   2.8375342075342199E-006   7.8539084760438874E-002   0.0000000000000000     
   3.6560893768351906E-006   9.1320347725255005E-002   0.0000000000000000     
   4.5227216707854900E-006  0.10476987284741232        0.0000000000000000     
   3.9875828112982806E-002  0.10616205163564540        0.0000000000000000     
   4.2124686059300594E-002  0.12011321670331386        0.0000000000000000     
   4.4169342880676199E-002  0.13453144157945837        0.0000000000000000     
   4.6009798577109608E-002  0.14941672626407901        0.0000000000000000     
   4.7646053148600834E-002  0.16476907075717570        0.0000000000000000     
   2.9489413328414905E-002  0.10555253507796585        0.0000000000000000     
   3.1138333648924689E-002  0.11954243542505408        0.0000000000000000     
   3.2634082939846036E-002  0.13401786771922539        0.0000000000000000     
   3.3976661201178961E-002  0.14897883196047981        0.0000000000000000     
   3.5166068432923456E-002  0.16442532814881725        0.0000000000000000     
   1.9382057501673603E-002  0.10511733309403382        0.0000000000000000     
   2.0456382836807827E-002  0.11913478520816051        0.0000000000000000     
   2.1428671566569975E-002  0.13365119965090380        0.0000000000000000     
   2.2298923690960037E-002  0.14866657642226375        0.0000000000000000     
   2.3067139209978028E-002  0.16418091552224029        0.0000000000000000     
   9.5537606327588953E-003  0.10485644568384930        0.0000000000000000     
   1.0078833622950017E-002  0.11889026605263311        0.0000000000000000     
   1.0553108760848003E-002  0.13343143737449362        0.0000000000000000     
   1.0976586046452848E-002  0.14847995964943084        0.0000000000000000     
   1.1349265479764559E-002  0.16403583287744483        0.0000000000000000     
   4.5227216707854900E-006  0.10476987284741232        0.0000000000000000     
   5.6860073512593305E-006  0.11880887795847189        0.0000000000000000     
   7.3945226801300570E-006  0.13335858088999486        0.0000000000000000     
   9.6482676573915981E-006  0.14841898164198117        0.0000000000000000     
   1.2447242283048290E-005  0.16399008021443084        0.0000000000000000     
   0.0000000000000000        0.0000000000000000        0.0000000000000000     
  -2.2609787849793041E-008   2.5451584059384678E-003   0.0000000000000000     
  -3.8789633034904888E-008   6.4356383291286987E-003   0.0000000000000000     
  -4.8539535554142921E-008   1.1671439769570692E-002   0.0000000000000000     
  -5.1859495408916600E-008   1.8252562727264450E-002   0.0000000000000000     
   0.0000000000000000        0.0000000000000000        0.0000000000000000     
  -8.9977490114432008E-004   2.5708626889213355E-003   0.0000000000000000     
  -1.7836983350811872E-003   6.4865335769106018E-003   0.0000000000000000     
  -2.6517703018106007E-003   1.1747012663967797E-002   0.0000000000000000     
  -3.5039908013325639E-003   1.8352299950092927E-002   0.0000000000000000     
   0.0000000000000000        0.0000000000000000        0.0000000000000000     
  -1.7827990851488900E-003   2.6477084099901294E-003   0.0000000000000000     
  -3.5655434238653326E-003   6.6389484952042470E-003   0.0000000000000000     
  -5.3482330161493275E-003   1.1973720255642355E-002   0.0000000000000000     
  -7.1308678620008769E-003   1.8652023691304444E-002   0.0000000000000000     
   0.0000000000000000        0.0000000000000000        0.0000000000000000     
  -2.6490951618015597E-003   2.7756955691448501E-003   0.0000000000000000     
  -5.3455740559854720E-003   6.8928830840096359E-003   0.0000000000000000     
  -8.0894366825517358E-003   1.2351562544594356E-002   0.0000000000000000     
  -1.0880683041500352E-002   1.9151733950899016E-002   0.0000000000000000     
   0.0000000000000000        0.0000000000000000        0.0000000000000000     
  -3.4986631311023303E-003   2.9548241663854970E-003   0.0000000000000000     
  -7.1237902314416034E-003   7.2483373433267686E-003   0.0000000000000000     
  -1.0875381301017822E-002   1.2880539530823812E-002   0.0000000000000000     
  -1.4753436339830985E-002   1.9851430728876629E-002   0.0000000000000000     
  -5.1859495408916600E-008   1.8252562727264450E-002   0.0000000000000000     
   3.5343934343037148E-008   2.5988449425477032E-002   0.0000000000000000     
   2.9716420064387298E-007   3.4688542087475509E-002   0.0000000000000000     
   7.3360130349134117E-007   4.4352840713259872E-002   0.0000000000000000     
   1.3446552428889383E-006   5.4981345302830123E-002   0.0000000000000000     
  -3.5039908013325639E-003   1.8352299950092927E-002   0.0000000000000000     
  -4.3444858256253922E-003   2.6107519422547527E-002   0.0000000000000000     
  -5.1773813666674082E-003   3.4817795068593137E-002   0.0000000000000000     
  -6.0026774244586120E-003   4.4483126888229779E-002   0.0000000000000000     
  -6.8203739989990027E-003   5.5103514881457413E-002   0.0000000000000000     
  -7.1308678620008769E-003   1.8652023691304444E-002   0.0000000000000000     
  -8.8916849992284348E-003   2.6465618544689890E-002   0.0000000000000000     
  -1.0608921465640461E-002   3.5206264558298055E-002   0.0000000000000000     
  -1.2282577261236955E-002   4.4873961732128938E-002   0.0000000000000000     
  -1.3912652386017915E-002   5.5468710066182522E-002   0.0000000000000000     
  -1.0880683041500352E-002   1.9151733950899016E-002   0.0000000000000000     
  -1.3641562176874787E-002   2.7062746791904135E-002   0.0000000000000000     
  -1.6294323132718516E-002   3.5853950556590242E-002   0.0000000000000000     
  -1.8838965909031537E-002   4.5525345244957341E-002   0.0000000000000000     
  -2.1275490505813847E-002   5.6076930857005436E-002   0.0000000000000000     
  -1.4753436339830985E-002   1.9851430728876629E-002   0.0000000000000000     
  -1.8594117358564446E-002   2.7898904164190257E-002   0.0000000000000000     
  -2.2233586367901570E-002   3.6760853063469719E-002   0.0000000000000000     
  -2.5671843367842357E-002   4.6437277426715017E-002   0.0000000000000000     
  -2.8908888358386797E-002   5.6928177253926154E-002   0.0000000000000000     
   1.3446552428889383E-006   5.4981345302830123E-002   0.0000000000000000     
   2.0670561628861016E-006   6.6426083952963913E-002   0.0000000000000000     