 <VTKFile type="UnstructuredGrid"  version="0.1"   >
 <UnstructuredGrid>
 <Piece  NumberOfPoints="          1600 "  NumberOfCells="         1024 ">
 <Points>
 <DataArray  type="Float64" NumberOfComponents="3"  format="ascii" >
   0.0000000000000000        0.0000000000000000        0.0000000000000000     
   3.1250000000000000E-002   0.0000000000000000        0.0000000000000000     
   6.2500000000000000E-002   0.0000000000000000        0.0000000000000000     
   9.3750000000000000E-002   0.0000000000000000        0.0000000000000000     
  0.12500000000000000        0.0000000000000000        0.0000000000000000     
   0.0000000000000000        3.1250000000000000E-002   0.0000000000000000     
   3.1250000000000000E-002   3.1250000000000000E-002   0.0000000000000000     
   6.2500000000000000E-002   3.1250000000000000E-002   0.0000000000000000     
   9.3750000000000000E-002   3.1250000000000000E-002   0.0000000000000000     
  0.12500000000000000        3.1250000000000000E-002   0.0000000000000000     
   0.0000000000000000        6.2500000000000000E-002   0.0000000000000000     
   3.1250000000000000E-002   6.2500000000000000E-002   0.0000000000000000     
   6.2500000000000000E-002   6.2500000000000000E-002   0.0000000000000000     
   9.3750000000000000E-002   6.2500000000000000E-002   0.0000000000000000     
  0.12500000000000000        6.2500000000000000E-002   0.0000000000000000     
   0.0000000000000000        9.3750000000000000E-002   0.0000000000000000     
   3.1250000000000000E-002   9.3750000000000000E-002   0.0000000000000000     
   6.2500000000000000E-002   9.3750000000000000E-002   0.0000000000000000     
   9.3750000000000000E-002   9.3750000000000000E-002   0.0000000000000000     
  0.12500000000000000        9.3750000000000000E-002   0.0000000000000000     
   0.0000000000000000       0.12500000000000000        0.0000000000000000     
   3.1250000000000000E-002  0.12500000000000000        0.0000000000000000     
   6.2500000000000000E-002  0.12500000000000000        0.0000000000000000     
   9.3750000000000000E-002  0.12500000000000000        0.0000000000000000     
  0.12500000000000000       0.12500000000000000        0.0000000000000000     
  0.12500000000000000        0.0000000000000000        0.0000000000000000     
  0.15625000000000000        0.0000000000000000        0.0000000000000000     
  0.18750000000000000        0.0000000000000000        0.0000000000000000     
  0.21875000000000000        0.0000000000000000        0.0000000000000000     
  0.25000000000000000        0.0000000000000000        0.0000000000000000     
  0.12500000000000000        3.1250000000000000E-002   0.0000000000000000     
  0.15625000000000000        3.1250000000000000E-002   0.0000000000000000     
  0.18750000000000000        3.1250000000000000E-002   0.0000000000000000     
  0.21875000000000000        3.1250000000000000E-002   0.0000000000000000     
  0.25000000000000000        3.1250000000000000E-002   0.0000000000000000     
  0.12500000000000000        6.2500000000000000E-002   0.0000000000000000     
  0.15625000000000000        6.2500000000000000E-002   0.0000000000000000     
  0.18750000000000000        6.2500000000000000E-002   0.0000000000000000     
  0.21875000000000000        6.2500000000000000E-002   0.0000000000000000     
  0.25000000000000000        6.2500000000000000E-002   0.0000000000000000     
  0.12500000000000000        9.3750000000000000E-002   0.0000000000000000     
  0.15625000000000000        9.3750000000000000E-002   0.0000000000000000     
  0.18750000000000000        9.3750000000000000E-002   0.0000000000000000     
  0.21875000000000000        9.3750000000000000E-002   0.0000000000000000     
  0.25000000000000000        9.3750000000000000E-002   0.0000000000000000     
  0.12500000000000000       0.12500000000000000        0.0000000000000000     
  0.15625000000000000       0.12500000000000000        0.0000000000000000     
  0.18750000000000000       0.12500000000000000        0.0000000000000000     
  0.21875000000000000       0.12500000000000000        0.0000000000000000     
  0.25000000000000000       0.12500000000000000        0.0000000000000000     
  0.25000000000000000        0.0000000000000000        0.0000000000000000     
  0.28125000000000000        0.0000000000000000        0.0000000000000000     
  0.31250000000000000        0.0000000000000000        0.0000000000000000     
  0.34375000000000000        0.0000000000000000        0.0000000000000000     
  0.37500000000000000        0.0000000000000000        0.0000000000000000     
  0.25000000000000000        3.1250000000000000E-002   0.0000000000000000     
  0.28125000000000000        3.1250000000000000E-002   0.0000000000000000     
  0.31250000000000000        3.1250000000000000E-002   0.0000000000000000     
  0.34375000000000000        3.1250000000000000E-002   0.0000000000000000     
  0.37500000000000000        3.1250000000000000E-002   0.0000000000000000     
  0.25000000000000000        6.2500000000000000E-002   0.0000000000000000     
  0.28125000000000000        6.2500000000000000E-002   0.0000000000000000     
  0.31250000000000000        6.2500000000000000E-002   0.0000000000000000     
  0.34375000000000000        6.2500000000000000E-002   0.0000000000000000     
  0.37500000000000000        6.2500000000000000E-002   0.0000000000000000     
  0.25000000000000000        9.3750000000000000E-002   0.0000000000000000     
  0.28125000000000000        9.3750000000000000E-002   0.0000000000000000     
  0.31250000000000000        9.3750000000000000E-002   0.0000000000000000     
  0.34375000000000000        9.3750000000000000E-002   0.0000000000000000     
  0.37500000000000000        9.3750000000000000E-002   0.0000000000000000     
  0.25000000000000000       0.12500000000000000        0.0000000000000000     
  0.28125000000000000       0.12500000000000000        0.0000000000000000     
  0.31250000000000000       0.12500000000000000        0.0000000000000000     
  0.34375000000000000       0.12500000000000000        0.0000000000000000     
  0.37500000000000000       0.12500000000000000        0.0000000000000000     
  0.37500000000000000        0.0000000000000000        0.0000000000000000     
  0.40625000000000000        0.0000000000000000        0.0000000000000000     
  0.43750000000000000        0.0000000000000000        0.0000000000000000     
  0.46875000000000000        0.0000000000000000        0.0000000000000000     
  0.50000000000000000        0.0000000000000000        0.0000000000000000     
  0.37500000000000000        3.1250000000000000E-002   0.0000000000000000     
  0.40625000000000000        3.1250000000000000E-002   0.0000000000000000     
  0.43750000000000000        3.1250000000000000E-002   0.0000000000000000     
  0.46875000000000000        3.1250000000000000E-002   0.0000000000000000     
  0.50000000000000000        3.1250000000000000E-002   0.0000000000000000     
  0.37500000000000000        6.2500000000000000E-002   0.0000000000000000     
  0.40625000000000000        6.2500000000000000E-002   0.0000000000000000     
  0.43750000000000000        6.2500000000000000E-002   0.0000000000000000     
  0.46875000000000000        6.2500000000000000E-002   0.0000000000000000     
  0.50000000000000000        6.2500000000000000E-002   0.0000000000000000     
  0.37500000000000000        9.3750000000000000E-002   0.0000000000000000     
  0.40625000000000000        9.3750000000000000E-002   0.0000000000000000     
  0.43750000000000000        9.3750000000000000E-002   0.0000000000000000     
  0.46875000000000000        9.3750000000000000E-002   0.0000000000000000     
  0.50000000000000000        9.3750000000000000E-002   0.0000000000000000     
  0.37500000000000000       0.12500000000000000        0.0000000000000000     
  0.40625000000000000       0.12500000000000000        0.0000000000000000     
  0.43750000000000000       0.12500000000000000        0.0000000000000000     
  0.46875000000000000       0.12500000000000000        0.0000000000000000     
  0.50000000000000000       0.12500000000000000        0.0000000000000000     
  0.50000000000000000        0.0000000000000000        0.0000000000000000     
  0.53125000000000000        0.0000000000000000        0.0000000000000000     
  0.56250000000000000        0.0000000000000000        0.0000000000000000     
  0.59375000000000000        0.0000000000000000        0.0000000000000000     
  0.62500000000000000        0.0000000000000000        0.0000000000000000     
  0.50000000000000000        3.1250000000000000E-002   0.0000000000000000     
  0.53125000000000000        3.1250000000000000E-002   0.0000000000000000     
  0.56250000000000000        3.1250000000000000E-002   0.0000000000000000     
  0.59375000000000000        3.1250000000000000E-002   0.0000000000000000     
  0.62500000000000000        3.1250000000000000E-002   0.0000000000000000     
  0.50000000000000000        6.2500000000000000E-002   0.0000000000000000     
  0.53125000000000000        6.2500000000000000E-002   0.0000000000000000     
  0.56250000000000000        6.2500000000000000E-002   0.0000000000000000     
  0.59375000000000000        6.2500000000000000E-002   0.0000000000000000     
  0.62500000000000000        6.2500000000000000E-002   0.0000000000000000     
  0.50000000000000000        9.3750000000000000E-002   0.0000000000000000     
  0.53125000000000000        9.3750000000000000E-002   0.0000000000000000     
  0.56250000000000000        9.3750000000000000E-002   0.0000000000000000     
  0.59375000000000000        9.3750000000000000E-002   0.0000000000000000     
  0.62500000000000000        9.3750000000000000E-002   0.0000000000000000     
  0.50000000000000000       0.12500000000000000        0.0000000000000000     
  0.53125000000000000       0.12500000000000000        0.0000000000000000     
  0.56250000000000000       0.12500000000000000        0.0000000000000000     
[...]
 <PointData>
 <DataArray  type="Float64" Name="disp" NumberOfComponents="3" format="ascii">
   0.0000000000000000        0.0000000000000000        0.0000000000000000     
  -8.0822392224446787E-003  -4.4617008224489612E-003   0.0000000000000000     
  -1.5124398328665594E-002  -1.0123473805289671E-002   0.0000000000000000     
  -2.1126477318662747E-002  -1.6985318948522128E-002   0.0000000000000000     
  -2.6088476192436129E-002  -2.5047236252146336E-002   0.0000000000000000     
   0.0000000000000000        0.0000000000000000        0.0000000000000000     
  -5.7545989123500320E-003  -4.4110147067691055E-003   0.0000000000000000     
  -1.1216979482454339E-002  -9.6032475262537095E-003   0.0000000000000000     
  -1.6387141710312920E-002  -1.5576698458453810E-002   0.0000000000000000     
  -2.1265085595925774E-002  -2.2331367503369410E-002   0.0000000000000000     
   0.0000000000000000        0.0000000000000000        0.0000000000000000     
  -4.0475315725004932E-003  -4.2950245440978281E-003   0.0000000000000000     
  -8.2646120716483324E-003  -9.1110217074467752E-003   0.0000000000000000     
  -1.2651241497443521E-002  -1.4447991490046845E-002   0.0000000000000000     
  -1.7207419849886055E-002  -2.0305933891898036E-002   0.0000000000000000     
   0.0000000000000000        0.0000000000000000        0.0000000000000000     
  -2.9610372028960599E-003  -4.1137303344351292E-003   0.0000000000000000     
  -6.2672960962475771E-003  -8.6467963488688730E-003   0.0000000000000000     
  -9.9187766800545498E-003  -1.3599198043301230E-002   0.0000000000000000     
  -1.3915478954316978E-002  -1.8970935417732204E-002   0.0000000000000000     
   0.0000000000000000        0.0000000000000000        0.0000000000000000     
  -2.4951158035367346E-003  -3.8671320777810079E-003   0.0000000000000000     
  -5.2250315562520702E-003  -8.2105714505199996E-003   0.0000000000000000     
  -8.1897472581460053E-003  -1.3030318118216972E-002   0.0000000000000000     
  -1.1389262909218543E-002  -1.8326372080871928E-002   0.0000000000000000     
  -2.6088476192436129E-002  -2.5047236252146336E-002   0.0000000000000000     
  -3.0284298616507041E-002  -3.2390336660311138E-002   0.0000000000000000     
  -3.3987848257396779E-002  -3.7095731117165374E-002   0.0000000000000000     
  -3.7199125115105335E-002  -3.9163419622709063E-002   0.0000000000000000     
  -3.9918129189632716E-002  -3.8593402176942182E-002   0.0000000000000000     
  -2.1265085595925774E-002  -2.2331367503369410E-002   0.0000000000000000     
  -2.5658324127069664E-002  -2.8867499607315092E-002   0.0000000000000000     
  -2.9374370291521342E-002  -3.4185339716605437E-002   0.0000000000000000     
  -3.2413224089280823E-002  -3.8284887831240420E-002   0.0000000000000000     
  -3.4774885520348103E-002  -4.1166143951220084E-002   0.0000000000000000     
  -1.7207419849886055E-002  -2.0305933891898036E-002   0.0000000000000000     
  -2.1485447594041900E-002  -2.6302116482655655E-002   0.0000000000000000     
  -2.5037625194977021E-002  -3.2053806831975035E-002   0.0000000000000000     
  -2.7863952652691409E-002  -3.7561004939856146E-002   0.0000000000000000     
  -2.9964429967185072E-002  -4.2823710806299015E-002   0.0000000000000000     
  -1.3915478954316978E-002  -1.8970935417732204E-002   0.0000000000000000     
  -1.7765669017423762E-002  -2.4694187286332842E-002   0.0000000000000000     
  -2.0977612967763799E-002  -3.0701132463274178E-002   0.0000000000000000     
  -2.3551310805337091E-002  -3.6991770948556227E-002   0.0000000000000000     
  -2.5486762530143637E-002  -4.3566102742178967E-002   0.0000000000000000     
  -1.1389262909218543E-002  -1.8326372080871928E-002   0.0000000000000000     
  -1.4498988397215246E-002  -2.4043712018346639E-002   0.0000000000000000     
  -1.7194333609881686E-002  -3.0127316610502882E-002   0.0000000000000000     
  -1.9475298547217863E-002  -3.6577185857340655E-002   0.0000000000000000     
  -2.1341883209223776E-002  -4.3393319758859961E-002   0.0000000000000000     
  -3.9918129189632716E-002  -3.8593402176942182E-002   0.0000000000000000     
  -4.2777574471839337E-002  -4.0135971564708238E-002   0.0000000000000000     
  -4.6410174952585606E-002  -4.8541420570850730E-002   0.0000000000000000     
  -5.0815930631871536E-002  -6.3809749195369650E-002   0.0000000000000000     
  -5.5994841509697121E-002  -8.5940957438265006E-002   0.0000000000000000     
  -3.4774885520348103E-002  -4.1166143951220084E-002   0.0000000000000000     
  -3.6983284408516913E-002  -4.5175688234137180E-002   0.0000000000000000     
  -3.9562350577581007E-002  -5.2660100837584496E-002   0.0000000000000000     
  -4.2512084027540357E-002  -6.3619381761562038E-002   0.0000000000000000     
  -4.5832484758394999E-002  -7.8053531006069793E-002   0.0000000000000000     
  -2.9964429967185072E-002  -4.2823710806299015E-002   0.0000000000000000     
  -3.1756730321353267E-002  -4.8543672653662009E-002   0.0000000000000000     
  -3.3658526898091248E-002  -5.5422638704303487E-002   0.0000000000000000     
  -3.5669819697399012E-002  -6.3460608958223474E-002   0.0000000000000000     
  -3.7790608719276558E-002  -7.2657583415421959E-002   0.0000000000000000     
  -2.5486762530143637E-002  -4.3566102742178967E-002   0.0000000000000000     
  -2.7097912210348397E-002  -5.0239924823282711E-002   0.0000000000000000     
  -2.8698703914116351E-002  -5.6829034171007702E-002   0.0000000000000000     
  -3.0289137641447486E-002  -6.3333430785353959E-002   0.0000000000000000     
  -3.1869213392341805E-002  -6.9753114666321489E-002   0.0000000000000000     
  -2.1341883209223776E-002  -4.3393319758859961E-002   0.0000000000000000     
  -2.3006830075502298E-002  -5.0264444742999292E-002   0.0000000000000000     
  -2.4682881625656301E-002  -5.6879287237697140E-002   0.0000000000000000     
  -2.6370037859685783E-002  -6.3237847242953504E-002   0.0000000000000000     
  -2.8068298777590747E-002  -6.9340124758768384E-002   0.0000000000000000     
  -5.5994841509697121E-002  -8.5940957438265006E-002   0.0000000000000000     
  -6.1431548427102696E-002 -0.10496613148482818        0.0000000000000000     
  -6.6610692225128595E-002 -0.11091635752035056        0.0000000000000000     
  -7.1532272903774827E-002 -0.10379163554483217        0.0000000000000000     
  -7.6196290463041383E-002  -8.3591965558272988E-002   0.0000000000000000     
  -4.5832484758394999E-002  -7.8053531006069793E-002   0.0000000000000000     
  -4.9599165667919415E-002  -8.9631889156483402E-002   0.0000000000000000     
  -5.3887739653888114E-002  -9.2023796798178473E-002   0.0000000000000000     
  -5.8698206716301098E-002  -8.5229253931154991E-002   0.0000000000000000     
  -6.4030566855158400E-002  -6.9248260555412972E-002   0.0000000000000000     
  -3.7790608719276558E-002  -7.2657583415421959E-002   0.0000000000000000     
  -4.0374376884924339E-002  -7.9403976515239366E-002   0.0000000000000000     
  -4.3774607115542798E-002  -8.0090202697016138E-002   0.0000000000000000     
  -4.7991299411131921E-002  -7.4716261960752248E-002   0.0000000000000000     
  -5.3024453771691731E-002  -6.3282154306447722E-002   0.0000000000000000     
  -3.1869213392341805E-002  -6.9753114666321489E-002   0.0000000000000000     
  -3.3757182078117468E-002  -7.4282393561096088E-002   0.0000000000000000     
  -3.6271294610092618E-002  -7.5115575216863559E-002   0.0000000000000000     
  -3.9411550988267249E-002  -7.2252659633623942E-002   0.0000000000000000     
  -4.3177951212641376E-002  -6.5693646811377210E-002   0.0000000000000000     
  -2.8068298777590747E-002  -6.9340124758768384E-002   0.0000000000000000     
  -2.9747581247498812E-002  -7.4267140294053569E-002   0.0000000000000000     
  -3.1377802137537603E-002  -7.7099914357720789E-002   0.0000000000000000     
  -3.2958961447707109E-002  -7.7838446949770074E-002   0.0000000000000000     
  -3.4491059178007349E-002  -7.6482738070201436E-002   0.0000000000000000     
  -7.6196290463041383E-002  -8.3591965558272988E-002   0.0000000000000000     
  -8.4611738225596936E-002  -6.6485806253883839E-002   0.0000000000000000     
 -0.10078760951411021       -6.8641616324875601E-002   0.0000000000000000     
 -0.12472390432858114       -9.0059395771248246E-002   0.0000000000000000     
 -0.15642062266900980      -0.13073914459300179        0.0000000000000000     
  -6.4030566855158400E-002  -6.9248260555412972E-002   0.0000000000000000     
  -7.1212876852195628E-002  -5.7332259004055197E-002   0.0000000000000000     
  -8.1573193489148460E-002  -6.2732691610184382E-002   0.0000000000000000     
  -9.5111516766016951E-002  -8.5449558373800555E-002   0.0000000000000000     
 -0.11182784668280100      -0.12548285929490369        0.0000000000000000     
  -5.3024453771691731E-002  -6.3282154306447722E-002   0.0000000000000000     
  -5.8473077678535268E-002  -5.6406412131472905E-002   0.0000000000000000     
  -6.3936178612975625E-002  -6.4707567833198157E-002   0.0000000000000000     
  -6.9413756575012767E-002  -8.8185621411623463E-002   0.0000000000000000     
  -7.4905811564646721E-002 -0.12684057286674885        0.0000000000000000     
  -4.3177951212641376E-002  -6.5693646811377210E-002   0.0000000000000000     
  -4.6392340704615870E-002  -6.3708265636136990E-002   0.0000000000000000     
  -4.7876564885591624E-002  -7.4566244993916925E-002   0.0000000000000000     
  -4.7630623755568646E-002  -9.8267584884716999E-002   0.0000000000000000     
  -4.5654517314546908E-002 -0.13481228530853723        0.0000000000000000     
  -3.4491059178007349E-002  -7.6482738070201436E-002   0.0000000000000000     
  -3.4970665930437440E-002  -7.9237819518047439E-002   0.0000000000000000     
  -3.3394352306996507E-002  -9.2308723092340686E-002   0.0000000000000000     
  -2.9762118307684559E-002 -0.11569544879308115        0.0000000000000000     
  -2.4073963932501580E-002 -0.14939799662026887        0.0000000000000000     
 -0.15642062266900980      -0.13073914459300179        0.0000000000000000     
 -0.18718118311008813      -0.18680404496118228        0.0000000000000000     
 -0.20830900422650811      -0.25437727904683582        0.0000000000000000     
 -0.21980408601826976      -0.33345884684996246        0.0000000000000000     
 -0.22166642848537307      -0.42404874837056217        0.0000000000000000     
 -0.11182784668280100      -0.12548285929490369        0.0000000000000000     
 -0.12844441872786844      -0.18127775509053901        0.0000000000000000     
 -0.14168346838958698      -0.25127940647775165        0.0000000000000000     
 -0.15154499566795654      -0.33548781345654161        0.0000000000000000     
 -0.15802900056297728      -0.43390297602690892        0.0000000000000000     
  -7.4905811564646721E-002 -0.12684057286674885        0.0000000000000000     
  -8.0985311027071419E-002 -0.18038840177281587        0.0000000000000000     
  -8.8225222407480805E-002 -0.24854508770406605        0.0000000000000000     
  -9.6625545705874880E-002 -0.33131063066049943        0.0000000000000000     
 -0.10618628092225361      -0.42868503064211594        0.0000000000000000     
  -4.5654517314546908E-002 -0.13481228530853723        0.0000000000000000     
  -4.4803860007697031E-002 -0.18413598500801284        0.0000000000000000     
  -4.7934266280189597E-002 -0.24617432272577908        0.0000000000000000     
  -5.5045736132024625E-002 -0.32092729846183582        0.0000000000000000     
  -6.6138269563202109E-002 -0.40839491221618335        0.0000000000000000     
  -2.4073963932501580E-002 -0.14939799662026887        0.0000000000000000     
  -1.9900065669745289E-002 -0.19252050479613000        0.0000000000000000     
  -2.0810600007713384E-002 -0.24416711154289075        0.0000000000000000     
  -2.6805566946405866E-002 -0.30433781686055100        0.0000000000000000     
  -3.7884966485822735E-002 -0.37303262074911092        0.0000000000000000     
 -0.22166642848537307      -0.42404874837056217        0.0000000000000000     
 -0.20528729157658018      -0.50008965323467025        0.0000000000000000     
 -0.16205793524065334      -0.53552423106832214        0.0000000000000000     
  -9.1978359477592461E-002 -0.53035248187151796        0.0000000000000000     
   4.9514357126024117E-003 -0.48457440564425747        0.0000000000000000     
 -0.15802900056297728      -0.43390297602690892        0.0000000000000000     
 -0.15532963892707224      -0.51877256568075458        0.0000000000000000     
 -0.13764106661266468      -0.56234425390997955        0.0000000000000000     
 -0.10496328361975459      -0.56461804071458377        0.0000000000000000     
  -5.7296289948341947E-002 -0.52559392609456712        0.0000000000000000     
 -0.10618628092225361      -0.42868503064211594        0.0000000000000000     
 -0.11307092042790751      -0.51521864638532111        0.0000000000000000     
 -0.11344295659412702      -0.56546183662652005        0.0000000000000000     
 -0.10730238942091215      -0.57941460136571277        0.0000000000000000     
  -9.4649218908262833E-002 -0.55707694060289947        0.0000000000000000     
  -6.6138269563202109E-002 -0.40839491221618335        0.0000000000000000     
  -7.8511136079086011E-002 -0.48942789534836978        0.0000000000000000     
  -8.9463605185040360E-002 -0.54487697921794387        0.0000000000000000     
  -9.8995676881065114E-002 -0.57474216382490528        0.0000000000000000     
 -0.10710735116716029      -0.57902344916925441        0.0000000000000000     
  -3.7884966485822735E-002 -0.37303262074911092        0.0000000000000000     
  -5.1650285880607744E-002 -0.44140031256990075        0.0000000000000000     
  -6.5703012385404672E-002 -0.50058968168425089        0.0000000000000000     
  -8.0043146000213505E-002 -0.55060072809216132        0.0000000000000000     
  -9.4670686725034259E-002 -0.59143345179363216        0.0000000000000000     
   4.9514357126024117E-003 -0.48457440564425747        0.0000000000000000     
   7.2184473446451680E-002 -0.44964295820100086        0.0000000000000000     
   5.3173776840475750E-002 -0.47701109535620811        0.0000000000000000     
  -5.2080654105325377E-002 -0.56667881710987933        0.0000000000000000     
 -0.24357881939095175      -0.71864612346201429        0.0000000000000000     
  -5.7296289948341947E-002 -0.52559392609456712        0.0000000000000000     
  -1.7242410592365989E-002 -0.48269495534953016        0.0000000000000000     
  -7.4039705457659543E-003 -0.47334417377907306        0.0000000000000000     
  -2.7780969808541833E-002 -0.49754158138319576        0.0000000000000000     
  -7.8373408380693621E-002 -0.55528717816189843        0.0000000000000000     
  -9.4649218908262833E-002 -0.55707694060289947        0.0000000000000000     
  -7.5740565161154114E-002 -0.52506050772509549        0.0000000000000000     
  -5.0833548284560888E-002 -0.50997695611931615        0.0000000000000000     
  -1.9928168278483167E-002 -0.51182628578556155        0.0000000000000000     
   1.6975574857079033E-002 -0.53060849672383181        0.0000000000000000     
 -0.10710735116716029      -0.57902344916925441        0.0000000000000000     
 -0.10330999025991265      -0.57673961532769658        0.0000000000000000     
  -7.7114956375909038E-002 -0.58690944237693732        0.0000000000000000     
  -2.8522249515149395E-002 -0.60953293031697697        0.0000000000000000     
   4.2468130322366252E-002 -0.64461007914781476        0.0000000000000000     
  -9.4670686725034259E-002 -0.59143345179363216        0.0000000000000000     
  -9.9950685888641644E-002 -0.63773227815733369        0.0000000000000000     
  -8.6248194819810386E-002 -0.70414163255193685        0.0000000000000000     
  -5.3563213518540508E-002 -0.79066151497744142        0.0000000000000000     
  -1.8957419848319862E-003 -0.89729192543384717        0.0000000000000000     
   0.0000000000000000        0.0000000000000000        0.0000000000000000     
  -2.4951158035367346E-003  -3.8671320777810079E-003   0.0000000000000000     
  -5.2250315562520702E-003  -8.2105714505199996E-003   0.0000000000000000     
  -8.1897472581460053E-003  -1.3030318118216972E-002   0.0000000000000000     
  -1.1389262909218543E-002  -1.8326372080871928E-002   0.0000000000000000     
   0.0000000000000000        0.0000000000000000        0.0000000000000000     
  -2.2937367513867998E-003  -3.6423712991915840E-003   0.0000000000000000     
  -4.6098726380903992E-003  -7.8726400596447286E-003   0.0000000000000000     
  -6.9484076601107978E-003  -1.2690806281359435E-002   0.0000000000000000     
  -9.3093418174479952E-003  -1.8096869964335696E-002   0.0000000000000000     
   0.0000000000000000        0.0000000000000000        0.0000000000000000     
  -2.0008694234105381E-003  -3.5265895237229761E-003   0.0000000000000000     
  -3.8938735281911505E-003  -7.7032952234876387E-003   0.0000000000000000     
  -5.6790123143418362E-003  -1.2530117099293983E-002   0.0000000000000000     
  -7.3562857818625970E-003  -1.8007055151142017E-002   0.0000000000000000     
   0.0000000000000000        0.0000000000000000        0.0000000000000000     
  -1.6165138196079503E-003  -3.5197867513751834E-003   0.0000000000000000     
  -3.0770342265543245E-003  -7.7025369420487249E-003   0.0000000000000000     
  -4.3815612208391221E-003  -1.2548250572020627E-002   0.0000000000000000     
  -5.5300948024623424E-003  -1.8056927641290885E-002   0.0000000000000000     
   0.0000000000000000        0.0000000000000000        0.0000000000000000     
  -1.1406699399790360E-003  -3.6219629821482068E-003   0.0000000000000000     
  -2.1593547331799205E-003  -7.8703652153279922E-003   0.0000000000000000     
  -3.0560543796026522E-003  -1.2745206699539359E-002   0.0000000000000000     
  -3.8307688792472332E-003  -1.8246487434782303E-002   0.0000000000000000     
  -1.1389262909218543E-002  -1.8326372080871928E-002   0.0000000000000000     
  -1.4498988397215246E-002  -2.4043712018346639E-002   0.0000000000000000     
  -1.7194333609881686E-002  -3.0127316610502882E-002   0.0000000000000000     
  -1.9475298547217863E-002  -3.6577185857340655E-002   0.0000000000000000     
  -2.1341883209223776E-002  -4.3393319758859961E-002   0.0000000000000000     
  -9.3093418174479952E-003  -1.8096869964335696E-002   0.0000000000000000     
  -1.1595369185009523E-002  -2.3923735285367655E-002   0.0000000000000000     
  -1.3709183837702909E-002  -3.0004306421249446E-002   0.0000000000000000     
  -1.5650785775528153E-002  -3.6338583371981051E-002   0.0000000000000000     
  -1.7420174998485256E-002  -4.2926566137562502E-002   0.0000000000000000     
  -7.3562857818625970E-003  -1.8007055151142017E-002   0.0000000000000000     
  -8.9647748323997724E-003  -2.3907301694066491E-002   0.0000000000000000     
  -1.0543560367599701E-002  -3.0004049043102169E-002   0.0000000000000000     
  -1.2092642387462386E-002  -3.6297297198249048E-002   0.0000000000000000     
  -1.3612020891987825E-002  -4.2787046159507118E-002   0.0000000000000000     
  -5.5300948024623424E-003  -1.8056927641290885E-002   0.0000000000000000     
  -6.6072053393859877E-003  -2.3994411244443146E-002   0.0000000000000000     
  -7.6974631995720601E-003  -3.0126544476061053E-002   0.0000000000000000     
  -8.8008683830205579E-003  -3.6453327336144606E-002   0.0000000000000000     
  -9.9174208897314826E-003  -4.2974759824693815E-002   0.0000000000000000     
  -3.8307688792472332E-003  -1.8246487434782303E-002   0.0000000000000000     
  -4.5226607059681741E-003  -2.4185063936497619E-002   0.0000000000000000     
  -5.1708923336199865E-003  -3.0371792720126113E-002   0.0000000000000000     
  -5.7754637622026723E-003  -3.6806673785667758E-002   0.0000000000000000     
  -6.3363749917162305E-003  -4.3489707133122592E-002   0.0000000000000000     
  -2.1341883209223776E-002  -4.3393319758859961E-002   0.0000000000000000     
  -2.3006830075502298E-002  -5.0264444742999292E-002   0.0000000000000000     