 <VTKFile type="UnstructuredGrid"  version="0.1"   >
 <UnstructuredGrid>
 <Piece  NumberOfPoints="          1600 "  NumberOfCells="         1024 ">
 <Points>
 <DataArray  type="Float64" NumberOfComponents="3"  format="ascii" >
   0.0000000000000000        0.0000000000000000        0.0000000000000000     
   3.1250000000000000E-002   0.0000000000000000        0.0000000000000000     
   6.2500000000000000E-002   0.0000000000000000        0.0000000000000000     
   9.3750000000000000E-002   0.0000000000000000        0.0000000000000000     
  0.12500000000000000        0.0000000000000000        0.0000000000000000     
   0.0000000000000000        3.1250000000000000E-002   0.0000000000000000     
   3.1250000000000000E-002   3.1250000000000000E-002   0.0000000000000000     
   6.2500000000000000E-002   3.1250000000000000E-002   0.0000000000000000     
   9.3750000000000000E-002   3.1250000000000000E-002   0.0000000000000000     
  0.12500000000000000        3.1250000000000000E-002   0.0000000000000000     
   0.0000000000000000        6.2500000000000000E-002   0.0000000000000000     
   3.1250000000000000E-002   6.2500000000000000E-002   0.0000000000000000     
   6.2500000000000000E-002   6.2500000000000000E-002   0.0000000000000000     
   9.3750000000000000E-002   6.2500000000000000E-002   0.0000000000000000     
  0.12500000000000000        6.2500000000000000E-002   0.0000000000000000     
   0.0000000000000000        9.3750000000000000E-002   0.0000000000000000     
   3.1250000000000000E-002   9.3750000000000000E-002   0.0000000000000000     
   6.2500000000000000E-002   9.3750000000000000E-002   0.0000000000000000     
   9.3750000000000000E-002   9.3750000000000000E-002   0.0000000000000000     
  0.12500000000000000        9.3750000000000000E-002   0.0000000000000000     
   0.0000000000000000       0.12500000000000000        0.0000000000000000     
   3.1250000000000000E-002  0.12500000000000000        0.0000000000000000     
   6.2500000000000000E-002  0.12500000000000000        0.0000000000000000     
   9.3750000000000000E-002  0.12500000000000000        0.0000000000000000     
  0.12500000000000000       0.12500000000000000        0.0000000000000000     
  0.12500000000000000        0.0000000000000000        0.0000000000000000     
  0.15625000000000000        0.0000000000000000        0.0000000000000000     
  0.18750000000000000        0.0000000000000000        0.0000000000000000     
  0.21875000000000000        0.0000000000000000        0.0000000000000000     
  0.25000000000000000        0.0000000000000000        0.0000000000000000     
  0.12500000000000000        3.1250000000000000E-002   0.0000000000000000     
  0.15625000000000000        3.1250000000000000E-002   0.0000000000000000     
  0.18750000000000000        3.1250000000000000E-002   0.0000000000000000     
  0.21875000000000000        3.1250000000000000E-002   0.0000000000000000     
  0.25000000000000000        3.1250000000000000E-002   0.0000000000000000     
  0.12500000000000000        6.2500000000000000E-002   0.0000000000000000     
  0.15625000000000000        6.2500000000000000E-002   0.0000000000000000     
  0.18750000000000000        6.2500000000000000E-002   0.0000000000000000     
  0.21875000000000000        6.2500000000000000E-002   0.0000000000000000     
  0.25000000000000000        6.2500000000000000E-002   0.0000000000000000     
  0.12500000000000000        9.3750000000000000E-002   0.0000000000000000     
  0.15625000000000000        9.3750000000000000E-002   0.0000000000000000     
  0.18750000000000000        9.3750000000000000E-002   0.0000000000000000     
  0.21875000000000000        9.3750000000000000E-002   0.0000000000000000     
  0.25000000000000000        9.3750000000000000E-002   0.0000000000000000     
  0.12500000000000000       0.12500000000000000        0.0000000000000000     
  0.15625000000000000       0.12500000000000000        0.0000000000000000     
  0.18750000000000000       0.12500000000000000        0.0000000000000000     
  0.21875000000000000       0.12500000000000000        0.0000000000000000     
  0.25000000000000000       0.12500000000000000        0.0000000000000000     
  0.25000000000000000        0.0000000000000000        0.0000000000000000     
  0.28125000000000000        0.0000000000000000        0.0000000000000000     
  0.31250000000000000        0.0000000000000000        0.0000000000000000     
  0.34375000000000000        0.0000000000000000        0.0000000000000000     
  0.37500000000000000        0.0000000000000000        0.0000000000000000     
  0.25000000000000000        3.1250000000000000E-002   0.0000000000000000     
  0.28125000000000000        3.1250000000000000E-002   0.0000000000000000     
  0.31250000000000000        3.1250000000000000E-002   0.0000000000000000     
  0.34375000000000000        3.1250000000000000E-002   0.0000000000000000     
  0.37500000000000000        3.1250000000000000E-002   0.0000000000000000     
  0.25000000000000000        6.2500000000000000E-002   0.0000000000000000     
  0.28125000000000000        6.2500000000000000E-002   0.0000000000000000     
  0.31250000000000000        6.2500000000000000E-002   0.0000000000000000     
  0.34375000000000000        6.2500000000000000E-002   0.0000000000000000     
  0.37500000000000000        6.2500000000000000E-002   0.0000000000000000     
  0.25000000000000000        9.3750000000000000E-002   0.0000000000000000     
  0.28125000000000000        9.3750000000000000E-002   0.0000000000000000     
  0.31250000000000000        9.3750000000000000E-002   0.0000000000000000     
  0.34375000000000000        9.3750000000000000E-002   0.0000000000000000     
  0.37500000000000000        9.3750000000000000E-002   0.0000000000000000     
  0.25000000000000000       0.12500000000000000        0.0000000000000000     
  0.28125000000000000       0.12500000000000000        0.0000000000000000     
  0.31250000000000000       0.12500000000000000        0.0000000000000000     
  0.34375000000000000       0.12500000000000000        0.0000000000000000     
  0.37500000000000000       0.12500000000000000        0.0000000000000000     
  0.37500000000000000        0.0000000000000000        0.0000000000000000     
  0.40625000000000000        0.0000000000000000        0.0000000000000000     
  0.43750000000000000        0.0000000000000000        0.0000000000000000     
  0.46875000000000000        0.0000000000000000        0.0000000000000000     
  0.50000000000000000        0.0000000000000000        0.0000000000000000     
  0.37500000000000000        3.1250000000000000E-002   0.0000000000000000     
  0.40625000000000000        3.1250000000000000E-002   0.0000000000000000     
  0.43750000000000000        3.1250000000000000E-002   0.0000000000000000     
  0.46875000000000000        3.1250000000000000E-002   0.0000000000000000     
  0.50000000000000000        3.1250000000000000E-002   0.0000000000000000     
  0.37500000000000000        6.2500000000000000E-002   0.0000000000000000     
  0.40625000000000000        6.2500000000000000E-002   0.0000000000000000     
  0.43750000000000000        6.2500000000000000E-002   0.0000000000000000     
  0.46875000000000000        6.2500000000000000E-002   0.0000000000000000     
  0.50000000000000000        6.2500000000000000E-002   0.0000000000000000     
  0.37500000000000000        9.3750000000000000E-002   0.0000000000000000     
  0.40625000000000000        9.3750000000000000E-002   0.0000000000000000     
  0.43750000000000000        9.3750000000000000E-002   0.0000000000000000     
  0.46875000000000000        9.3750000000000000E-002   0.0000000000000000     
  0.50000000000000000        9.3750000000000000E-002   0.0000000000000000     
  0.37500000000000000       0.12500000000000000        0.0000000000000000     
  0.40625000000000000       0.12500000000000000        0.0000000000000000     
  0.43750000000000000       0.12500000000000000        0.0000000000000000     
  0.46875000000000000       0.12500000000000000        0.0000000000000000     
  0.50000000000000000       0.12500000000000000        0.0000000000000000     
  0.50000000000000000        0.0000000000000000        0.0000000000000000     
  0.53125000000000000        0.0000000000000000        0.0000000000000000     
  0.56250000000000000        0.0000000000000000        0.0000000000000000     
  0.59375000000000000        0.0000000000000000        0.0000000000000000     
  0.62500000000000000        0.0000000000000000        0.0000000000000000     
  0.50000000000000000        3.1250000000000000E-002   0.0000000000000000     
  0.53125000000000000        3.1250000000000000E-002   0.0000000000000000     
  0.56250000000000000        3.1250000000000000E-002   0.0000000000000000     
  0.59375000000000000        3.1250000000000000E-002   0.0000000000000000     
  0.62500000000000000        3.1250000000000000E-002   0.0000000000000000     
  0.50000000000000000        6.2500000000000000E-002   0.0000000000000000     
  0.53125000000000000        6.2500000000000000E-002   0.0000000000000000     
  0.56250000000000000        6.2500000000000000E-002   0.0000000000000000     
  0.59375000000000000        6.2500000000000000E-002   0.0000000000000000     
  0.62500000000000000        6.2500000000000000E-002   0.0000000000000000     
  0.50000000000000000        9.3750000000000000E-002   0.0000000000000000     
  0.53125000000000000        9.3750000000000000E-002   0.0000000000000000     
  0.56250000000000000        9.3750000000000000E-002   0.0000000000000000     
  0.59375000000000000        9.3750000000000000E-002   0.0000000000000000     
  0.62500000000000000        9.3750000000000000E-002   0.0000000000000000     
  0.50000000000000000       0.12500000000000000        0.0000000000000000     
  0.53125000000000000       0.12500000000000000        0.0000000000000000     
  0.56250000000000000       0.12500000000000000        0.0000000000000000     
[...]
 <PointData>
 <DataArray  type="Float64" Name="disp" NumberOfComponents="3" format="ascii">
   0.0000000000000000        0.0000000000000000        0.0000000000000000     
   6.0957974064650517E-003   3.7905773830031984E-003   0.0000000000000000     
   1.1665751374714676E-002   7.3239541214796932E-003   0.0000000000000000     
   1.6709861904748873E-002   1.0600130215429484E-002   0.0000000000000000     
   2.1228128996567643E-002   1.3619105664852572E-002   0.0000000000000000     
   0.0000000000000000        0.0000000000000000        0.0000000000000000     
   4.8911563471945065E-003   3.0221967838835813E-003   0.0000000000000000     
   9.5735869534226171E-003   6.0605562262349014E-003   0.0000000000000000     
   1.4047291818684339E-002   9.1150783270539590E-003   0.0000000000000000     
   1.8312270942979658E-002   1.2185763086340760E-002   0.0000000000000000     
   0.0000000000000000        0.0000000000000000        0.0000000000000000     
   3.9536658572564155E-003   2.4251039960685233E-003   0.0000000000000000     
   7.9106912307303733E-003   5.0628618979542319E-003   0.0000000000000000     
   1.1871076120421872E-002   7.9132737056571267E-003   0.0000000000000000     
   1.5834820526330909E-002   1.0976339419177208E-002   0.0000000000000000     
   0.0000000000000000        0.0000000000000000        0.0000000000000000     
   3.2833259366507796E-003   1.9992990195580249E-003   0.0000000000000000     
   6.6770642066379376E-003   4.3308711366376873E-003   0.0000000000000000     
   1.0181214809961472E-002   6.9947163512389865E-003   0.0000000000000000     
   1.3795777746621387E-002   9.9908346633619249E-003   0.0000000000000000     
   0.0000000000000000        0.0000000000000000        0.0000000000000000     
   2.8801365853775981E-003   1.7447818543520855E-003   0.0000000000000000     
   5.8727058811453136E-003   3.8645839422852650E-003   0.0000000000000000     
   8.9777078873031456E-003   6.3594062637995375E-003   0.0000000000000000     
   1.2195142603851095E-002   9.2292488188949039E-003   0.0000000000000000     
   2.1228128996567643E-002   1.3619105664852572E-002   0.0000000000000000     
   2.5433317578004259E-002   1.6611800650484489E-002   0.0000000000000000     
   2.9538192576891987E-002   1.9809135353060760E-002   0.0000000000000000     
   3.3542753993230839E-002   2.3211109772581392E-002   0.0000000000000000     
   3.7447001827020800E-002   2.6817723909046375E-002   0.0000000000000000     
   1.8312270942979658E-002   1.2185763086340760E-002   0.0000000000000000     
   2.2406818396204481E-002   1.5341105518530566E-002   0.0000000000000000     
   2.6369228248254679E-002   1.8649600638058660E-002   0.0000000000000000     
   3.0199500499130259E-002   2.2111248444925027E-002   0.0000000000000000     
   3.3897635148831227E-002   2.5726048939129678E-002   0.0000000000000000     
   1.5834820526330909E-002   1.0976339419177208E-002   0.0000000000000000     
   1.9730327703301149E-002   1.4210890319659575E-002   0.0000000000000000     
   2.3486000906176255E-002   1.7575757688249326E-002   0.0000000000000000     
   2.7101840134956225E-002   2.1070941524946457E-002   0.0000000000000000     
   3.0577845389641055E-002   2.4696441829750972E-002   0.0000000000000000     
   1.3795777746621387E-002   9.9908346633619249E-003   0.0000000000000000     
   1.7403845499294267E-002   1.3221155053871513E-002   0.0000000000000000     
   2.0888510550656714E-002   1.6587606503632765E-002   0.0000000000000000     
   2.4249772900708722E-002   2.0090189012645681E-002   0.0000000000000000     
   2.7487632549450296E-002   2.3728902580910261E-002   0.0000000000000000     
   1.2195142603851095E-002   9.2292488188949039E-003   0.0000000000000000     
   1.5427371784183843E-002   1.2371899721166379E-002   0.0000000000000000     
   1.8576757181696064E-002   1.5685147084208980E-002   0.0000000000000000     
   2.1643298796387767E-002   1.9168990908022699E-002   0.0000000000000000     
   2.4626996628258947E-002   2.2823431192607546E-002   0.0000000000000000     
   3.7447001827020800E-002   2.6817723909046375E-002   0.0000000000000000     
   4.1255413994172797E-002   3.0623378335250452E-002   0.0000000000000000     
   4.4972468410597752E-002   3.4622473623988348E-002   0.0000000000000000     
   4.8598165076295656E-002   3.8815009775260069E-002   0.0000000000000000     
   5.2132503991266538E-002   4.3200986789065601E-002   0.0000000000000000     
   3.3897635148831227E-002   2.5726048939129678E-002   0.0000000000000000     
   3.7486599166318135E-002   2.9522343666499751E-002   0.0000000000000000     
   4.0989359520551563E-002   3.3528474172862387E-002   0.0000000000000000     
   4.4405916211531504E-002   3.7744440458217593E-002   0.0000000000000000     
   4.7736269239257959E-002   4.2170242522565377E-002   0.0000000000000000     
   3.0577845389641055E-002   2.4696441829750972E-002   0.0000000000000000     
   3.3943068477975159E-002   2.8496699889514355E-002   0.0000000000000000     
   3.7226561207702936E-002   3.2516156991088091E-002   0.0000000000000000     
   4.0428323578824400E-002   3.6754813134472160E-002   0.0000000000000000     
   4.3548355591339530E-002   4.1212668319666600E-002   0.0000000000000000     
   2.7487632549450296E-002   2.3728902580910261E-002   0.0000000000000000     
   3.0624821929143869E-002   2.7546447004294268E-002   0.0000000000000000     
   3.3684073472051893E-002   3.1585522078665426E-002   0.0000000000000000     
   3.6665387178174358E-002   3.5846127804023763E-002   0.0000000000000000     
   3.9568763047511273E-002   4.0328264180369264E-002   0.0000000000000000     
   2.4626996628258947E-002   2.2823431192607546E-002   0.0000000000000000     
   2.7531859519824269E-002   2.6671585010839469E-002   0.0000000000000000     
   3.0361896313598417E-002   3.0736569435594416E-002   0.0000000000000000     
   3.3117107009581384E-002   3.5018384466872381E-002   0.0000000000000000     
   3.5797491607773166E-002   3.9517030104673376E-002   0.0000000000000000     
   5.2132503991266538E-002   4.3200986789065601E-002   0.0000000000000000     
   5.5573065404884867E-002   4.7787647720853560E-002   0.0000000000000000     
   5.8917429566525154E-002   5.2582235626072539E-002   0.0000000000000000     
   6.2165596476187419E-002   5.7584750504722559E-002   0.0000000000000000     
   6.5317566133871630E-002   6.2795192356803586E-002   0.0000000000000000     
   4.7736269239257959E-002   4.2170242522565377E-002   0.0000000000000000     
   5.0976890160276470E-002   4.6800934862144469E-002   0.0000000000000000     
   5.4124250531132623E-002   5.1631571973193638E-002   0.0000000000000000     
   5.7178350351826390E-002   5.6662153855712875E-002   0.0000000000000000     
   6.0139189622357772E-002   6.1892680509702196E-002   0.0000000000000000     
   4.3548355591339530E-002   4.1212668319666600E-002   0.0000000000000000     
   4.6583124685611807E-002   4.5877746488538831E-002   0.0000000000000000     
   4.9529098302004693E-002   5.0738071582956332E-002   0.0000000000000000     
   5.2386276440518194E-002   5.5793643602919100E-002   0.0000000000000000     
   5.5154659101152290E-002   6.1044462548427131E-002   0.0000000000000000     
   3.9568763047511273E-002   4.0328264180369264E-002   0.0000000000000000     
   4.2391768980890872E-002   4.5018082600036653E-002   0.0000000000000000     
   4.5131972879141384E-002   4.9901734455360634E-002   0.0000000000000000     
   4.7789374742262809E-002   5.4979219746341207E-002   0.0000000000000000     
   5.0363974570255168E-002   6.0250538472978385E-002   0.0000000000000000     
   3.5797491607773166E-002   3.9517030104673376E-002   0.0000000000000000     
   3.8402823046113650E-002   4.4221943196637921E-002   0.0000000000000000     
   4.0932874262542676E-002   4.9122560590406525E-002   0.0000000000000000     
   4.3387645257060271E-002   5.4218882285979215E-002   0.0000000000000000     
   4.5767136029666408E-002   5.9510908283355979E-002   0.0000000000000000     
   6.5317566133871630E-002   6.2795192356803586E-002   0.0000000000000000     
   6.8375264858756710E-002   6.8196505271338859E-002   0.0000000000000000     
   7.1340618970021544E-002   7.3771633337351553E-002   0.0000000000000000     
   7.4213628467666132E-002   7.9520576554841682E-002   0.0000000000000000     
   7.6994293351690474E-002   8.5443334923809247E-002   0.0000000000000000     
   6.0139189622357772E-002   6.1892680509702196E-002   0.0000000000000000     
   6.3010977976606652E-002   6.7312582209703126E-002   0.0000000000000000     
   6.5797925048452874E-002   7.2911289230257179E-002   0.0000000000000000     
   6.8500030837896464E-002   7.8688801571364375E-002   0.0000000000000000     
   7.1117295344937367E-002   8.4645119233024729E-002   0.0000000000000000     
   5.5154659101152290E-002   6.1044462548427131E-002   0.0000000000000000     
   5.7839449950716146E-002   6.6484064599307280E-002   0.0000000000000000     
   6.0445852656018935E-002   7.2105985935386419E-002   0.0000000000000000     
   6.2973867217060622E-002   7.7910226556664519E-002   0.0000000000000000     
   6.5423493633841229E-002   8.3896786463141595E-002   0.0000000000000000     
   5.0363974570255168E-002   6.0250538472978385E-002   0.0000000000000000     
   5.2860680781085204E-002   6.5710952440151335E-002   0.0000000000000000     
   5.5284401792719713E-002   7.1355723452739231E-002   0.0000000000000000     
   5.7635137605158662E-002   7.7184851510742072E-002   0.0000000000000000     
   5.9912888218402086E-002   8.3198336614159873E-002   0.0000000000000000     
   4.5767136029666408E-002   5.9510908283355979E-002   0.0000000000000000     
   4.8074670467713819E-002   6.4993245732235291E-002   0.0000000000000000     
   5.0313572458555209E-002   7.0660501782315671E-002   0.0000000000000000     
   5.2483842002190570E-002   7.6512676433597077E-002   0.0000000000000000     
   5.4585479098619896E-002   8.2549769686079549E-002   0.0000000000000000     
   7.6994293351690474E-002   8.5443334923809247E-002   0.0000000000000000     
   7.9668882314170783E-002   9.1527082042180838E-002   0.0000000000000000     
   8.2223664047183259E-002   9.7758991507883045E-002   0.0000000000000000     
   8.4658638550727902E-002  0.10413906332091585        0.0000000000000000     
   8.6973805824804712E-002  0.11066729748127929        0.0000000000000000     
   7.1117295344937367E-002   8.4645119233024729E-002   0.0000000000000000     
   7.3632740305179453E-002   9.0763872980088020E-002   0.0000000000000000     
   7.6029387454226563E-002   9.7028693577404013E-002   0.0000000000000000     
   7.8307236792078669E-002  0.10343958102497276        0.0000000000000000     
   8.0466288318735785E-002  0.10999653532279421        0.0000000000000000     
   6.5423493633841229E-002   8.3896786463141595E-002   0.0000000000000000     
   6.7776488549355127E-002   9.0046693631084182E-002   0.0000000000000000     
   7.0014608606596598E-002   9.6340976036758799E-002   0.0000000000000000     
   7.2137853805565713E-002  0.10277963368016538        0.0000000000000000     
   7.4146224146262402E-002  0.10936266656130399        0.0000000000000000     
   5.9912888218402086E-002   8.3198336614159873E-002   0.0000000000000000     
   6.2100127046697727E-002   8.9375543995169379E-002   0.0000000000000000     
   6.4179327504293365E-002   9.5695838885947335E-002   0.0000000000000000     
   6.6150489591188980E-002  0.10215922128649374        0.0000000000000000     
   6.8013613307384591E-002  0.10876569119680859        0.0000000000000000     
   5.4585479098619896E-002   8.2549769686079549E-002   0.0000000000000000     
   5.6603655797207289E-002   8.8750424072343570E-002   0.0000000000000000     
   5.8523544147316836E-002   9.5093282124969675E-002   0.0000000000000000     
   6.0345144148948517E-002  0.10157834384395784        0.0000000000000000     
   6.2068455802102351E-002  0.10820560922930805        0.0000000000000000     
   8.6973805824804712E-002  0.11066729748127929        0.0000000000000000     
   8.9224166196982438E-002  0.11736771221142017        0.0000000000000000     
   9.1464719994829816E-002  0.12426432573378531        0.0000000000000000     
   9.3695467218346873E-002  0.13135713804837471        0.0000000000000000     
   9.5916407867533610E-002  0.13864614915518839        0.0000000000000000     
   8.0466288318735785E-002  0.10999653532279421        0.0000000000000000     
   8.2562891665463545E-002  0.11671822563404083        0.0000000000000000     
   8.4653396463527583E-002  0.12362332112188502        0.0000000000000000     
   8.6737802712927914E-002  0.13071182178632679        0.0000000000000000     
   8.8816110413664523E-002  0.13798372762736608        0.0000000000000000     
   7.4146224146262402E-002  0.10936266656130399        0.0000000000000000     
   7.6094489518637509E-002  0.11610497665001757        0.0000000000000000     
   7.8037419812641756E-002  0.12302146591614910        0.0000000000000000     
   7.9975015028275157E-002  0.13011213435969854        0.0000000000000000     
   8.1907275165537696E-002  0.13737698198066592        0.0000000000000000     
   6.8013613307384591E-002  0.10876569119680859        0.0000000000000000     
   6.9818959756504345E-002  0.11552796525935036        0.0000000000000000     
   7.1616790042172335E-002  0.12245876011657750        0.0000000000000000     
   7.3407104164388615E-002  0.12955807576849002        0.0000000000000000     
   7.5189902123153116E-002  0.13682591221508786        0.0000000000000000     
   6.2068455802102351E-002  0.10820560922930805        0.0000000000000000     
   6.3736302379064053E-002  0.11498719146203924        0.0000000000000000     
   6.5391507152119346E-002  0.12193520372317029        0.0000000000000000     
   6.7034070121268233E-002  0.12904964601270119        0.0000000000000000     
   6.8663991286510739E-002  0.13633051833063198        0.0000000000000000     
   9.5916407867533610E-002  0.13864614915518839        0.0000000000000000     
   9.8002373186517944E-002  0.14600216245821382        0.0000000000000000     
   9.9828194419427876E-002  0.15329598136143854        0.0000000000000000     
  0.10139387156626338       0.16052760586486256        0.0000000000000000     
  0.10269940462702448       0.16769703596848587        0.0000000000000000     
   8.8816110413664523E-002  0.13798372762736608        0.0000000000000000     
   9.0781121751132288E-002  0.14535470667324715        0.0000000000000000     
   9.2525638910726044E-002  0.15274042695221429        0.0000000000000000     
   9.4049661892445721E-002  0.16014088846426733        0.0000000000000000     
   9.5353190696291390E-002  0.16755609120940640        0.0000000000000000     
   8.1907275165537696E-002  0.13737698198066592        0.0000000000000000     
   8.3742707206536815E-002  0.14476135640945723        0.0000000000000000     
   8.5389818133379869E-002  0.15221060527647842        0.0000000000000000     
   8.6848607946066900E-002  0.15972472858172956        0.0000000000000000     
   8.8119076644597866E-002  0.16730372632521059        0.0000000000000000     
   7.5189902123153116E-002  0.13682591221508786        0.0000000000000000     
   7.6887129552731498E-002  0.14422211166684396        0.0000000000000000     
   7.8420732087389436E-002  0.15170651633423110        0.0000000000000000     
   7.9790709727126916E-002  0.15927912621724924        0.0000000000000000     
   8.0997062471943895E-002  0.16693994131589851        0.0000000000000000     
   6.8663991286510739E-002  0.13633051833063198        0.0000000000000000     
   7.0214388789716364E-002  0.14373697244540740        0.0000000000000000     
   7.1618380772754717E-002  0.15122816012547222        0.0000000000000000     
   7.2875967235625755E-002  0.15880408137082644        0.0000000000000000     
   7.3987148178329479E-002  0.16646473618147012        0.0000000000000000     
   0.0000000000000000        0.0000000000000000        0.0000000000000000     
   2.8801365853775981E-003   1.7447818543520855E-003   0.0000000000000000     
   5.8727058811453136E-003   3.8645839422852650E-003   0.0000000000000000     
   8.9777078873031456E-003   6.3594062637995375E-003   0.0000000000000000     
   1.2195142603851095E-002   9.2292488188949039E-003   0.0000000000000000     
   0.0000000000000000        0.0000000000000000        0.0000000000000000     
   2.6103109042013095E-003   1.5888802422505343E-003   0.0000000000000000     
   5.2897018895098737E-003   3.5566692567629622E-003   0.0000000000000000     
   8.0381729559256924E-003   5.9033670435372837E-003   0.0000000000000000     
   1.0855724103448766E-002   8.6289736025734979E-003   0.0000000000000000     
   0.0000000000000000        0.0000000000000000        0.0000000000000000     
   2.3400619938863535E-003   1.4589219250532007E-003   0.0000000000000000     
   4.7201378669889929E-003   3.2997960219367769E-003   0.0000000000000000     
   7.1402276193079190E-003   5.5226222906507279E-003   0.0000000000000000     
   9.6003312508431311E-003   8.1274007311950558E-003   0.0000000000000000     
   0.0000000000000000        0.0000000000000000        0.0000000000000000     
   2.0693898544327299E-003   1.3549069027600840E-003   0.0000000000000000     
   4.1640138135826711E-003   3.0939642378067073E-003   0.0000000000000000     
   6.2838718774498262E-003   5.2171720051398711E-003   0.0000000000000000     
   8.4289640460341927E-003   7.7245302047595733E-003   0.0000000000000000     
   0.0000000000000000        0.0000000000000000        0.0000000000000000     
   1.7982944858404380E-003   1.2768351753711842E-003   0.0000000000000000     
   3.6213297292909084E-003   2.9391739043727553E-003   0.0000000000000000     
   5.4691057303514114E-003   4.9870161870047116E-003   0.0000000000000000     
   7.3416224890219478E-003   7.4203620232670547E-003   0.0000000000000000     
   1.2195142603851095E-002   9.2292488188949039E-003   0.0000000000000000     
   1.5427371784183843E-002   1.2371899721166379E-002   0.0000000000000000     
   1.8576757181696064E-002   1.5685147084208980E-002   0.0000000000000000     
   2.1643298796387767E-002   1.9168990908022699E-002   0.0000000000000000     
   2.4626996628258947E-002   2.2823431192607546E-002   0.0000000000000000     
   1.0855724103448766E-002   8.6289736025734979E-003   0.0000000000000000     
   1.3689004791095201E-002   1.1651065558516806E-002   0.0000000000000000     
   1.6484664477881113E-002   1.4887219536012412E-002   0.0000000000000000     
   1.9242703163806493E-002   1.8337435535060311E-002   0.0000000000000000     
   2.1963120848871340E-002   2.2001713555660506E-002   0.0000000000000000     
   9.6003312508431311E-003   8.1274007311950558E-003   0.0000000000000000     
   1.2076842753153691E-002   1.1046593802895426E-002   0.0000000000000000     
   1.4546156117798664E-002   1.4212663965077511E-002   0.0000000000000000     
   1.7008271344778048E-002   1.7625611217741310E-002   0.0000000000000000     
   1.9463188434091845E-002   2.1285435560886825E-002   0.0000000000000000     
   8.4289640460341927E-003   7.7245302047595733E-003   0.0000000000000000     
   1.0590885670359313E-002   1.0558484454302235E-002   0.0000000000000000     
   1.2761232101448727E-002   1.3661480371404276E-002   0.0000000000000000     
   1.4940003339302439E-002   1.7033517956065693E-002   0.0000000000000000     
   1.7127199383920447E-002   2.0674597208286495E-002   0.0000000000000000     
   7.3416224890219478E-003   7.4203620232670547E-003   0.0000000000000000     
   9.2311335427120601E-003   1.0186737512737236E-002   0.0000000000000000     
   1.1129892428831299E-002   1.3233668754992706E-002   0.0000000000000000     
   1.3037899147379661E-002   1.6561155750033470E-002   0.0000000000000000     
   1.4955153698357149E-002   2.0169198497859517E-002   0.0000000000000000     
   2.4626996628258947E-002   2.2823431192607546E-002   0.0000000000000000     
   2.7531859519824269E-002   2.6671585010839469E-002   0.0000000000000000     