 <VTKFile type="UnstructuredGrid"  version="0.1"   >
 <UnstructuredGrid>
 <Piece  NumberOfPoints="            25 "  NumberOfCells="           16 ">
 <Points>
 <DataArray  type="Float64" NumberOfComponents="3"  format="ascii" >
   0.0000000000000000        0.0000000000000000        0.0000000000000000     
  0.25000000000000000        0.0000000000000000        0.0000000000000000     
  0.50000000000000000        0.0000000000000000        0.0000000000000000     
  0.75000000000000000        0.0000000000000000        0.0000000000000000     
   1.0000000000000000        0.0000000000000000        0.0000000000000000     
   0.0000000000000000       0.25000000000000000        0.0000000000000000     
  0.25000000000000000       0.25000000000000000        0.0000000000000000     
  0.50000000000000000       0.25000000000000000        0.0000000000000000     
  0.75000000000000000       0.25000000000000000        0.0000000000000000     
   1.0000000000000000       0.25000000000000000        0.0000000000000000     
   0.0000000000000000       0.50000000000000000        0.0000000000000000     
  0.25000000000000000       0.50000000000000000        0.0000000000000000     
  0.50000000000000000       0.50000000000000000        0.0000000000000000     
  0.75000000000000000       0.50000000000000000        0.0000000000000000     
   1.0000000000000000       0.50000000000000000        0.0000000000000000     
   0.0000000000000000       0.75000000000000000        0.0000000000000000     
  0.25000000000000000       0.75000000000000000        0.0000000000000000     
  0.50000000000000000       0.75000000000000000        0.0000000000000000     
  0.75000000000000000       0.75000000000000000        0.0000000000000000     
   1.0000000000000000       0.75000000000000000        0.0000000000000000     
   0.0000000000000000        1.0000000000000000        0.0000000000000000     
  0.25000000000000000        1.0000000000000000        0.0000000000000000     
  0.50000000000000000        1.0000000000000000        0.0000000000000000     
  0.75000000000000000        1.0000000000000000        0.0000000000000000     
   1.0000000000000000        1.0000000000000000        0.0000000000000000     
 </DataArray>
 </Points>
 <Cells>
 <DataArray  type="Int32"  Name="connectivity"  format="ascii">
           0           1           6           5
           1           2           7           6
           2           3           8           7
           3           4           9           8
           5           6          11          10
           6           7          12          11
           7           8          13          12
           8           9          14          13
          10          11          16          15
          11          12          17          16
          12          13          18          17
          13          14          19          18
          15          16          21          20
          16          17          22          21
          17          18          23          22
          18          19          24          23
 </DataArray>
 <DataArray  type="Int32"  Name="offsets"  format="ascii"> 
           4
           8
          12
          16
          20
          24
          28
          32
          36
          40
          44
          48
          52
          56
          60
          64
 </DataArray>
 <DataArray  type="UInt8"  Name="types"  format="ascii">
 9
 9
 9
 9
 9
 9
 9
 9
 9
 9
 9
 9
 9
 9
 9
 9
 </DataArray>
 </Cells> 
 <PointData>
 <DataArray  type="Float64" Name="disp" NumberOfComponents="3" format="ascii">
   0.0000000000000000        0.0000000000000000        0.0000000000000000     
   3.2028500729636193E-002   2.3611062526894329E-002   0.0000000000000000     
   5.8369351808935419E-002   5.7240025365462396E-002   0.0000000000000000     
   7.9022553237897697E-002  0.10088688851570421        0.0000000000000000     
   9.3988105016523008E-002  0.15455165197761978        0.0000000000000000     
   0.0000000000000000        0.0000000000000000        0.0000000000000000     
   1.6014250364818090E-002   1.9168472488908021E-002   0.0000000000000000     
   2.9184675904467695E-002   5.1121796551172674E-002   0.0000000000000000     
   3.9511276618948821E-002   9.5859972186793957E-002   0.0000000000000000     
   4.6994052508261469E-002  0.15338299939577188        0.0000000000000000     
   0.0000000000000000        0.0000000000000000        0.0000000000000000     
  -1.1275702593849246E-017   1.7687609142912591E-002   0.0000000000000000     
  -2.0816681711721685E-017   4.9082386946409443E-002   0.0000000000000000     
  -3.2092384305570931E-017   9.4184333410490526E-002   0.0000000000000000     
  -4.5102810375396984E-017  0.15299344853515590        0.0000000000000000     
   0.0000000000000000        0.0000000000000000        0.0000000000000000     
  -1.6014250364818107E-002   1.9168472488908045E-002   0.0000000000000000     
  -2.9184675904467730E-002   5.1121796551172695E-002   0.0000000000000000     
  -3.9511276618948876E-002   9.5859972186793929E-002   0.0000000000000000     
  -4.6994052508261525E-002  0.15338299939577177        0.0000000000000000     
   0.0000000000000000        0.0000000000000000        0.0000000000000000     
  -3.2028500729636200E-002   2.3611062526894371E-002   0.0000000000000000     
  -5.8369351808935432E-002   5.7240025365462431E-002   0.0000000000000000     
  -7.9022553237897697E-002  0.10088688851570417        0.0000000000000000     
  -9.3988105016522980E-002  0.15455165197761961        0.0000000000000000     
 </DataArray>
 </PointData>
 </Piece>
 <Piece  NumberOfPoints="            25 "  NumberOfCells="           16 ">
 <Points>
 <DataArray  type="Float64" NumberOfComponents="3"  format="ascii" >
  0.50000000000000000        0.0000000000000000        0.0000000000000000     
  0.75000000000000000        0.0000000000000000        0.0000000000000000     
   1.0000000000000000        0.0000000000000000        0.0000000000000000     
   1.2500000000000000        0.0000000000000000        0.0000000000000000     
   1.5000000000000000        0.0000000000000000        0.0000000000000000     
  0.50000000000000000       0.25000000000000000        0.0000000000000000     
  0.75000000000000000       0.25000000000000000        0.0000000000000000     
   1.0000000000000000       0.25000000000000000        0.0000000000000000     
   1.2500000000000000       0.25000000000000000        0.0000000000000000     
   1.5000000000000000       0.25000000000000000        0.0000000000000000     
  0.50000000000000000       0.50000000000000000        0.0000000000000000     
  0.75000000000000000       0.50000000000000000        0.0000000000000000     
   1.0000000000000000       0.50000000000000000        0.0000000000000000     
   1.2500000000000000       0.50000000000000000        0.0000000000000000     
   1.5000000000000000       0.50000000000000000        0.0000000000000000     
  0.50000000000000000       0.75000000000000000        0.0000000000000000     
  0.75000000000000000       0.75000000000000000        0.0000000000000000     
   1.0000000000000000       0.75000000000000000        0.0000000000000000     
   1.2500000000000000       0.75000000000000000        0.0000000000000000     
   1.5000000000000000       0.75000000000000000        0.0000000000000000     
  0.50000000000000000        1.0000000000000000        0.0000000000000000     
  0.75000000000000000        1.0000000000000000        0.0000000000000000     
   1.0000000000000000        1.0000000000000000        0.0000000000000000     
   1.2500000000000000        1.0000000000000000        0.0000000000000000     
   1.5000000000000000        1.0000000000000000        0.0000000000000000     
 </DataArray>
 </Points>
 <Cells>
 <DataArray  type="Int32"  Name="connectivity"  format="ascii">
           0           1           6           5
           1           2           7           6
           2           3           8           7
           3           4           9           8
           5           6          11          10
           6           7          12          11
           7           8          13          12
           8           9          14          13
          10          11          16          15
          11          12          17          16
          12          13          18          17
          13          14          19          18
          15          16          21          20
          16          17          22          21
          17          18          23          22
          18          19          24          23
 </DataArray>
 <DataArray  type="Int32"  Name="offsets"  format="ascii"> 
           4
           8
          12
          16
          20
          24
          28
          32
          36
          40
          44
          48
          52
          56
          60
          64
 </DataArray>
 <DataArray  type="UInt8"  Name="types"  format="ascii">
 9
 9
 9
 9
 9
 9
 9
 9
 9
 9
 9
 9
 9
 9
 9
 9
 </DataArray>
 </Cells> 
 <PointData>
 <DataArray  type="Float64" Name="disp" NumberOfComponents="3" format="ascii">
   5.8285995191642813E-002   5.5868365173681392E-002   0.0000000000000000     
   7.9063609482235869E-002  0.10156248234150687        0.0000000000000000     
   9.3904748399230215E-002  0.15317999178583872        0.0000000000000000     
  0.10280941194262588       0.21072089350667692        0.0000000000000000     
  0.10577760011242286       0.27418518750402149        0.0000000000000000     
   2.9142997595821386E-002   4.8552083893682034E-002   0.0000000000000000     
   3.9531804741117921E-002   9.7125651555408754E-002   0.0000000000000000     
   4.6952374199615107E-002  0.15081328673828112        0.0000000000000000     
   5.1404705971312949E-002  0.20961498944229917        0.0000000000000000     
   5.2888800056211452E-002  0.27353075966746287        0.0000000000000000     
  -2.9490299091605721E-017   4.6113323467015591E-002   0.0000000000000000     
  -1.5612511283791264E-017   9.5646707960042709E-002   0.0000000000000000     
  -9.1072982488782372E-018  0.15002438505576193        0.0000000000000000     
  -1.0083080204115191E-017  0.20924635475417330        0.0000000000000000     
  -3.4694469519536142E-018  0.27331261705527671        0.0000000000000000     
  -2.9142997595821431E-002   4.8552083893682076E-002   0.0000000000000000     
  -3.9531804741117949E-002   9.7125651555408740E-002   0.0000000000000000     
  -4.6952374199615142E-002  0.15081328673828115        0.0000000000000000     
  -5.1404705971312983E-002  0.20961498944229923        0.0000000000000000     
  -5.2888800056211507E-002  0.27353075966746304        0.0000000000000000     
  -5.8285995191642799E-002   5.5868365173681482E-002   0.0000000000000000     
  -7.9063609482235869E-002  0.10156248234150683        0.0000000000000000     
  -9.3904748399230270E-002  0.15317999178583866        0.0000000000000000     
 -0.10280941194262601       0.21072089350667697        0.0000000000000000     
 -0.10577760011242306       0.27418518750402177        0.0000000000000000     
 </DataArray>
 </PointData>
 </Piece>
 </UnstructuredGrid>
 </VTKFile>
