 <VTKFile type="UnstructuredGrid"  version="0.1"   >
 <UnstructuredGrid>
 <Piece  NumberOfPoints="          1600 "  NumberOfCells="         1024 ">
 <Points>
 <DataArray  type="Float64" NumberOfComponents="3"  format="ascii" >
   0.0000000000000000        0.0000000000000000        0.0000000000000000     
   3.1250000000000000E-002   0.0000000000000000        0.0000000000000000     
   6.2500000000000000E-002   0.0000000000000000        0.0000000000000000     
   9.3750000000000000E-002   0.0000000000000000        0.0000000000000000     
  0.12500000000000000        0.0000000000000000        0.0000000000000000     
   0.0000000000000000        3.1250000000000000E-002   0.0000000000000000     
   3.1250000000000000E-002   3.1250000000000000E-002   0.0000000000000000     
   6.2500000000000000E-002   3.1250000000000000E-002   0.0000000000000000     
   9.3750000000000000E-002   3.1250000000000000E-002   0.0000000000000000     
  0.12500000000000000        3.1250000000000000E-002   0.0000000000000000     
   0.0000000000000000        6.2500000000000000E-002   0.0000000000000000     
   3.1250000000000000E-002   6.2500000000000000E-002   0.0000000000000000     
   6.2500000000000000E-002   6.2500000000000000E-002   0.0000000000000000     
   9.3750000000000000E-002   6.2500000000000000E-002   0.0000000000000000     
  0.12500000000000000        6.2500000000000000E-002   0.0000000000000000     
   0.0000000000000000        9.3750000000000000E-002   0.0000000000000000     
   3.1250000000000000E-002   9.3750000000000000E-002   0.0000000000000000     
   6.2500000000000000E-002   9.3750000000000000E-002   0.0000000000000000     
   9.3750000000000000E-002   9.3750000000000000E-002   0.0000000000000000     
  0.12500000000000000        9.3750000000000000E-002   0.0000000000000000     
   0.0000000000000000       0.12500000000000000        0.0000000000000000     
   3.1250000000000000E-002  0.12500000000000000        0.0000000000000000     
   6.2500000000000000E-002  0.12500000000000000        0.0000000000000000     
   9.3750000000000000E-002  0.12500000000000000        0.0000000000000000     
  0.12500000000000000       0.12500000000000000        0.0000000000000000     
  0.12500000000000000        0.0000000000000000        0.0000000000000000     
  0.15625000000000000        0.0000000000000000        0.0000000000000000     
  0.18750000000000000        0.0000000000000000        0.0000000000000000     
  0.21875000000000000        0.0000000000000000        0.0000000000000000     
  0.25000000000000000        0.0000000000000000        0.0000000000000000     
  0.12500000000000000        3.1250000000000000E-002   0.0000000000000000     
  0.15625000000000000        3.1250000000000000E-002   0.0000000000000000     
  0.18750000000000000        3.1250000000000000E-002   0.0000000000000000     
  0.21875000000000000        3.1250000000000000E-002   0.0000000000000000     
  0.25000000000000000        3.1250000000000000E-002   0.0000000000000000     
  0.12500000000000000        6.2500000000000000E-002   0.0000000000000000     
  0.15625000000000000        6.2500000000000000E-002   0.0000000000000000     
  0.18750000000000000        6.2500000000000000E-002   0.0000000000000000     
  0.21875000000000000        6.2500000000000000E-002   0.0000000000000000     
  0.25000000000000000        6.2500000000000000E-002   0.0000000000000000     
  0.12500000000000000        9.3750000000000000E-002   0.0000000000000000     
  0.15625000000000000        9.3750000000000000E-002   0.0000000000000000     
  0.18750000000000000        9.3750000000000000E-002   0.0000000000000000     
  0.21875000000000000        9.3750000000000000E-002   0.0000000000000000     
  0.25000000000000000        9.3750000000000000E-002   0.0000000000000000     
  0.12500000000000000       0.12500000000000000        0.0000000000000000     
  0.15625000000000000       0.12500000000000000        0.0000000000000000     
  0.18750000000000000       0.12500000000000000        0.0000000000000000     
  0.21875000000000000       0.12500000000000000        0.0000000000000000     
  0.25000000000000000       0.12500000000000000        0.0000000000000000     
  0.25000000000000000        0.0000000000000000        0.0000000000000000     
  0.28125000000000000        0.0000000000000000        0.0000000000000000     
  0.31250000000000000        0.0000000000000000        0.0000000000000000     
  0.34375000000000000        0.0000000000000000        0.0000000000000000     
  0.37500000000000000        0.0000000000000000        0.0000000000000000     
  0.25000000000000000        3.1250000000000000E-002   0.0000000000000000     
  0.28125000000000000        3.1250000000000000E-002   0.0000000000000000     
  0.31250000000000000        3.1250000000000000E-002   0.0000000000000000     
  0.34375000000000000        3.1250000000000000E-002   0.0000000000000000     
  0.37500000000000000        3.1250000000000000E-002   0.0000000000000000     
  0.25000000000000000        6.2500000000000000E-002   0.0000000000000000     
  0.28125000000000000        6.2500000000000000E-002   0.0000000000000000     
  0.31250000000000000        6.2500000000000000E-002   0.0000000000000000     
  0.34375000000000000        6.2500000000000000E-002   0.0000000000000000     
  0.37500000000000000        6.2500000000000000E-002   0.0000000000000000     
  0.25000000000000000        9.3750000000000000E-002   0.0000000000000000     
  0.28125000000000000        9.3750000000000000E-002   0.0000000000000000     
  0.31250000000000000        9.3750000000000000E-002   0.0000000000000000     
  0.34375000000000000        9.3750000000000000E-002   0.0000000000000000     
  0.37500000000000000        9.3750000000000000E-002   0.0000000000000000     
  0.25000000000000000       0.12500000000000000        0.0000000000000000     
  0.28125000000000000       0.12500000000000000        0.0000000000000000     
  0.31250000000000000       0.12500000000000000        0.0000000000000000     
  0.34375000000000000       0.12500000000000000        0.0000000000000000     
  0.37500000000000000       0.12500000000000000        0.0000000000000000     
  0.37500000000000000        0.0000000000000000        0.0000000000000000     
  0.40625000000000000        0.0000000000000000        0.0000000000000000     
  0.43750000000000000        0.0000000000000000        0.0000000000000000     
  0.46875000000000000        0.0000000000000000        0.0000000000000000     
  0.50000000000000000        0.0000000000000000        0.0000000000000000     
  0.37500000000000000        3.1250000000000000E-002   0.0000000000000000     
  0.40625000000000000        3.1250000000000000E-002   0.0000000000000000     
  0.43750000000000000        3.1250000000000000E-002   0.0000000000000000     
  0.46875000000000000        3.1250000000000000E-002   0.0000000000000000     
  0.50000000000000000        3.1250000000000000E-002   0.0000000000000000     
  0.37500000000000000        6.2500000000000000E-002   0.0000000000000000     
  0.40625000000000000        6.2500000000000000E-002   0.0000000000000000     
  0.43750000000000000        6.2500000000000000E-002   0.0000000000000000     
  0.46875000000000000        6.2500000000000000E-002   0.0000000000000000     
  0.50000000000000000        6.2500000000000000E-002   0.0000000000000000     
  0.37500000000000000        9.3750000000000000E-002   0.0000000000000000     
  0.40625000000000000        9.3750000000000000E-002   0.0000000000000000     
  0.43750000000000000        9.3750000000000000E-002   0.0000000000000000     
  0.46875000000000000        9.3750000000000000E-002   0.0000000000000000     
  0.50000000000000000        9.3750000000000000E-002   0.0000000000000000     
  0.37500000000000000       0.12500000000000000        0.0000000000000000     
  0.40625000000000000       0.12500000000000000        0.0000000000000000     
  0.43750000000000000       0.12500000000000000        0.0000000000000000     
  0.46875000000000000       0.12500000000000000        0.0000000000000000     
  0.50000000000000000       0.12500000000000000        0.0000000000000000     
  0.50000000000000000        0.0000000000000000        0.0000000000000000     
  0.53125000000000000        0.0000000000000000        0.0000000000000000     
  0.56250000000000000        0.0000000000000000        0.0000000000000000     
  0.59375000000000000        0.0000000000000000        0.0000000000000000     
  0.62500000000000000        0.0000000000000000        0.0000000000000000     
  0.50000000000000000        3.1250000000000000E-002   0.0000000000000000     
  0.53125000000000000        3.1250000000000000E-002   0.0000000000000000     
  0.56250000000000000        3.1250000000000000E-002   0.0000000000000000     
  0.59375000000000000        3.1250000000000000E-002   0.0000000000000000     
  0.62500000000000000        3.1250000000000000E-002   0.0000000000000000     
  0.50000000000000000        6.2500000000000000E-002   0.0000000000000000     
  0.53125000000000000        6.2500000000000000E-002   0.0000000000000000     
  0.56250000000000000        6.2500000000000000E-002   0.0000000000000000     
  0.59375000000000000        6.2500000000000000E-002   0.0000000000000000     
  0.62500000000000000        6.2500000000000000E-002   0.0000000000000000     
  0.50000000000000000        9.3750000000000000E-002   0.0000000000000000     
  0.53125000000000000        9.3750000000000000E-002   0.0000000000000000     
  0.56250000000000000        9.3750000000000000E-002   0.0000000000000000     
  0.59375000000000000        9.3750000000000000E-002   0.0000000000000000     
  0.62500000000000000        9.3750000000000000E-002   0.0000000000000000     
  0.50000000000000000       0.12500000000000000        0.0000000000000000     
  0.53125000000000000       0.12500000000000000        0.0000000000000000     
  0.56250000000000000       0.12500000000000000        0.0000000000000000     
[...]
 <PointData>
 <DataArray  type="Float64" Name="disp" NumberOfComponents="3" format="ascii">
   0.0000000000000000        0.0000000000000000        0.0000000000000000     
   6.1005193175049655E-003   3.7903083166493075E-003   0.0000000000000000     
   1.1675113329017158E-002   7.3254433283241414E-003   0.0000000000000000     
   1.6723782034536581E-002   1.0605405035024502E-002   0.0000000000000000     
   2.1246525434063229E-002   1.3630193436750388E-002   0.0000000000000000     
   0.0000000000000000        0.0000000000000000        0.0000000000000000     
   4.8942625092008567E-003   3.0215839053135967E-003   0.0000000000000000     
   9.5798755908740527E-003   6.0612829647559638E-003   0.0000000000000000     
   1.4056839245019584E-002   9.1190971783270992E-003   0.0000000000000000     
   1.8325153471637459E-002   1.2195026546027006E-002   0.0000000000000000     
   0.0000000000000000        0.0000000000000000        0.0000000000000000     
   3.9553999237250115E-003   2.4243600865937074E-003   0.0000000000000000     
   7.9143106907854262E-003   5.0631514728999944E-003   0.0000000000000000     
   1.1876732301181244E-002   7.9163741589188628E-003   0.0000000000000000     
   1.5842664754912462E-002   1.0984028144650311E-002   0.0000000000000000     
   0.0000000000000000        0.0000000000000000        0.0000000000000000     
   3.2839315610774292E-003   1.9986368604896390E-003   0.0000000000000000     
   6.6784186287512787E-003   4.3310488527562360E-003   0.0000000000000000     
   1.0183461203021551E-002   6.9972359767997896E-003   0.0000000000000000     
   1.3799059283888238E-002   9.9971982326203020E-003   0.0000000000000000     
   0.0000000000000000        0.0000000000000000        0.0000000000000000     
   2.8798574212581091E-003   1.7444142270013918E-003   0.0000000000000000     
   5.8721994047716101E-003   3.8649751043246857E-003   0.0000000000000000     
   8.9770259505405053E-003   6.3616826319698814E-003   0.0000000000000000     
   1.2194337058564791E-002   9.2345368099369784E-003   0.0000000000000000     
   2.1246525434063229E-002   1.3630193436750388E-002   0.0000000000000000     
   2.5456723840885369E-002   1.6629788597592524E-002   0.0000000000000000     
   2.9567757568291272E-002   1.9834170581641639E-002   0.0000000000000000     
   3.3579626616280930E-002   2.3243339388897728E-002   0.0000000000000000     
   3.7492330984854348E-002   2.6857295019360801E-002   0.0000000000000000     
   1.8325153471637459E-002   1.2195026546027006E-002   0.0000000000000000     
   2.2423261753022374E-002   1.5356943027261866E-002   0.0000000000000000     
   2.6389607571469045E-002   1.8672718581437875E-002   0.0000000000000000     
   3.0224190926977462E-002   2.2142353208555027E-002   0.0000000000000000     
   3.3927011819547631E-002   2.5765846908613322E-002   0.0000000000000000     
   1.5842664754912462E-002   1.0984028144650311E-002   0.0000000000000000     
   1.9740399201490819E-002   1.4224694663943008E-002   0.0000000000000000     
   2.3498226790428040E-002   1.7596954950645626E-002   0.0000000000000000     
   2.7116147521724133E-002   2.1100809004758175E-002   0.0000000000000000     
   3.0594161395379085E-002   2.4736256826280639E-002   0.0000000000000000     
   1.3799059283888238E-002   9.9971982326203020E-003   0.0000000000000000     
   1.7408136186290696E-002   1.3233043507635947E-002   0.0000000000000000     
   2.0893615225168260E-002   1.6606879689264904E-002   0.0000000000000000     
   2.4255496400520923E-002   2.0118706777507177E-002   0.0000000000000000     
   2.7493779712348704E-002   2.3768524772362760E-002   0.0000000000000000     
   1.2194337058564791E-002   9.2345368099369784E-003   0.0000000000000000     
   1.5426472707422006E-002   1.2381989558340684E-002   0.0000000000000000     
   1.8575772875689692E-002   1.5702492797295704E-002   0.0000000000000000     
   2.1642237563367851E-002   1.9196046526802037E-002   0.0000000000000000     
   2.4625866770456480E-002   2.2862650746859683E-002   0.0000000000000000     
   3.7492330984854348E-002   2.6857295019360801E-002   0.0000000000000000     
   4.1309370147330542E-002   3.0677778842351060E-002   0.0000000000000000     
   4.5034243577028538E-002   3.4706532227188724E-002   0.0000000000000000     
   4.8666951273948336E-002   3.8943555173873788E-002   0.0000000000000000     
   5.2207493238089944E-002   4.3388847682406265E-002   0.0000000000000000     
   3.3927011819547631E-002   2.5765846908613322E-002   0.0000000000000000     
   3.7519208994622154E-002   2.9578217688000164E-002   0.0000000000000000     
   4.1021921197643633E-002   3.3614483553102974E-002   0.0000000000000000     
   4.4435148428612070E-002   3.7874644503921744E-002   0.0000000000000000     
   4.7758890687527464E-002   4.2358700540456470E-002   0.0000000000000000     
   3.0594161395379085E-002   2.4736256826280639E-002   0.0000000000000000     
   3.3959193120209820E-002   2.8553303484040549E-002   0.0000000000000000     
   3.7238167405033260E-002   3.2601954046865410E-002   0.0000000000000000     
   4.0431084249849397E-002   3.6882208514755224E-002   0.0000000000000000     
   4.3537943654658226E-002   4.1394066887710003E-002   0.0000000000000000     
   2.7493779712348704E-002   2.3768524772362760E-002   0.0000000000000000     
   3.0629322524093536E-002   2.7603036230472198E-002   0.0000000000000000     
   3.3682982199197409E-002   3.1668943708476026E-002   0.0000000000000000     
   3.6654758737660317E-002   3.5966247206374251E-002   0.0000000000000000     
   3.9544652139482238E-002   4.0494946724166848E-002   0.0000000000000000     
   2.4625866770456480E-002   2.2862650746859683E-002   0.0000000000000000     
   2.7529597206273314E-002   2.6727415927295120E-002   0.0000000000000000     
   3.0356365580136095E-002   3.0815452537934818E-002   0.0000000000000000     
   3.3106171892044824E-002   3.5126760578778789E-002   0.0000000000000000     
   3.5779016141999492E-002   3.9661340049827014E-002   0.0000000000000000     
   5.2207493238089944E-002   4.3388847682406265E-002   0.0000000000000000     
   5.5638151760597221E-002   4.8044560059948893E-002   0.0000000000000000     
   5.8941209132614053E-002   5.2912842613664426E-002   0.0000000000000000     
   6.2116665354140427E-002   5.7993695343552878E-002   0.0000000000000000     
   6.5164520425176370E-002   6.3287118249614235E-002   0.0000000000000000     
   4.7758890687527464E-002   4.2358700540456470E-002   0.0000000000000000     
   5.0986757001824819E-002   4.7057901328153698E-002   0.0000000000000000     
   5.4112356398939139E-002   5.1963496532459956E-002   0.0000000000000000     
   5.7135688878870425E-002   5.7075486153375245E-002   0.0000000000000000     
   6.0056754441618683E-002   6.2393870190899550E-002   0.0000000000000000     
   4.3537943654658226E-002   4.1394066887710003E-002   0.0000000000000000     
   4.6561005338704740E-002   4.6123219277077999E-002   0.0000000000000000     
   4.9502529021233921E-002   5.1055355794207481E-002   0.0000000000000000     
   5.2362514702245760E-002   5.6190476439098448E-002   0.0000000000000000     
   5.5140962381740252E-002   6.1528581211750921E-002   0.0000000000000000     
   3.9544652139482238E-002   4.0494946724166848E-002   0.0000000000000000     
   4.2360896771237007E-002   4.5240513906721798E-002   0.0000000000000000     
   4.5111726999498392E-002   5.0188420398907023E-002   0.0000000000000000     
   4.7797142824266420E-002   5.5338666200722537E-002   0.0000000000000000     
   5.0417144245541078E-002   6.0691251312168328E-002   0.0000000000000000     
   3.5779016141999492E-002   3.9661340049827014E-002   0.0000000000000000     
   3.8386431299421576E-002   4.4409785217085079E-002   0.0000000000000000     
   4.0939950333732551E-002   4.9362690346558574E-002   0.0000000000000000     
   4.3439573244932396E-002   5.4520055438247464E-002   0.0000000000000000     
   4.5885300033021145E-002   5.9881880492151797E-002   0.0000000000000000     
   6.5164520425176370E-002   6.3287118249614235E-002   0.0000000000000000     
   6.8111968519112984E-002   6.8773509536278046E-002   0.0000000000000000     
   7.0986203809341425E-002   7.4433267407973833E-002   0.0000000000000000     
   7.3787226295861666E-002   8.0266391864701608E-002   0.0000000000000000     
   7.6515035978673734E-002   8.6272882906461373E-002   0.0000000000000000     
   6.0056754441618683E-002   6.2393870190899550E-002   0.0000000000000000     
   6.2886513855929610E-002   6.7903869789324237E-002   0.0000000000000000     
   6.5635927890548923E-002   7.3590706092940647E-002   0.0000000000000000     
   6.8304996545476615E-002   7.9454379101748754E-002   0.0000000000000000     
   7.0893719820712700E-002   8.5494888815748599E-002   0.0000000000000000     
   5.5140962381740252E-002   6.1528581211750921E-002   0.0000000000000000     
   5.7837043234090391E-002   6.7058490660389256E-002   0.0000000000000000     
   6.0449928433669135E-002   7.2769025333237883E-002   0.0000000000000000     
   6.2979617980476507E-002   7.8660185230296817E-002   0.0000000000000000     
   6.5426111874512499E-002   8.4731970351566016E-002   0.0000000000000000     
   5.0417144245541078E-002   6.0691251312168328E-002   0.0000000000000000     
   5.2963556653595319E-002   6.6237372149473103E-002   0.0000000000000000     
   5.5428205438702069E-002   7.1968225128865596E-002   0.0000000000000000     
   5.7811090600861356E-002   7.7883810250345742E-002   0.0000000000000000     
   6.0112212140073153E-002   8.3984127513913626E-002   0.0000000000000000     
   4.5885300033021145E-002   5.9881880492151797E-002   0.0000000000000000     
   4.8266054114444373E-002   6.5440514256575794E-002   0.0000000000000000     
   5.0570758905647703E-002   7.1188305479823730E-002   0.0000000000000000     
   5.2799414406631141E-002   7.7125254161895612E-002   0.0000000000000000     
   5.4952020617394667E-002   8.3251360302791427E-002   0.0000000000000000     
   7.6515035978673734E-002   8.6272882906461373E-002   0.0000000000000000     
   7.9143597938867355E-002   9.2452767058258015E-002   0.0000000000000000     
   8.1646877257532252E-002   9.8806070845096391E-002   0.0000000000000000     
   8.4024873934668440E-002  0.10533279426697652        0.0000000000000000     
   8.6277587970275890E-002  0.11203293732389841        0.0000000000000000     
   7.0893719820712700E-002   8.5494888815748599E-002   0.0000000000000000     
   7.3383397317512811E-002   9.1710994741176582E-002   0.0000000000000000     
   7.5755328637132649E-002   9.8101456384269203E-002   0.0000000000000000     
   7.8009513779572173E-002  0.10466627374502643        0.0000000000000000     
   8.0145952744831411E-002  0.11140544682344827        0.0000000000000000     
   6.5426111874512499E-002   8.4731970351566016E-002   0.0000000000000000     
   6.7776214943691612E-002   9.0980934671706648E-002   0.0000000000000000     
   7.0016732015928382E-002   9.7403632165379922E-002   0.0000000000000000     
   7.2147663091222794E-002  0.10400006283258582        0.0000000000000000     
   7.4169008169574849E-002  0.11077022667332434        0.0000000000000000     
   6.0112212140073153E-002   8.3984127513913626E-002   0.0000000000000000     
   6.2322050817403774E-002   9.0262586849848198E-002   0.0000000000000000     
   6.4431087393919478E-002   9.6712598188428561E-002   0.0000000000000000     
   6.6439321869620274E-002  0.10333416152965466        0.0000000000000000     
   6.8346754244506175E-002  0.11012727687352654        0.0000000000000000     
   5.4952020617394667E-002   8.3251360302791427E-002   0.0000000000000000     
   5.7020904938649274E-002   8.9555951275601217E-002   0.0000000000000000     
   5.8998394771105932E-002   9.6028354453415080E-002   0.0000000000000000     
   6.0884490114764649E-002  0.10266856983623299        0.0000000000000000     
   6.2679190969625417E-002  0.10947659742405494        0.0000000000000000     
   8.6277587970275890E-002  0.11203293732389841        0.0000000000000000     
   8.8360226662296107E-002  0.11886386098502905        0.0000000000000000     
   9.0227997308670552E-002  0.12578292621953541        0.0000000000000000     
   9.1880899909399225E-002  0.13279013302741757        0.0000000000000000     
   9.3318934464482139E-002  0.13988548140867546        0.0000000000000000     
   8.0145952744831411E-002  0.11140544682344827        0.0000000000000000     
   8.2147709425758053E-002  0.11828054176892761        0.0000000000000000     
   8.3997847715199747E-002  0.12525312473085726        0.0000000000000000     
   8.5696367613156521E-002  0.13232319570923723        0.0000000000000000     
   8.7243269119628375E-002  0.13949075470406758        0.0000000000000000     
   7.4169008169574849E-002  0.11077022667332434        0.0000000000000000     
   7.6082494571571666E-002  0.11768032094783297        0.0000000000000000     
   7.7889849617800364E-002  0.12469654291634925        0.0000000000000000     
   7.9591073308260957E-002  0.13181889257887314        0.0000000000000000     
   8.1186165642953403E-002  0.13904736993540467        0.0000000000000000     
   6.8346754244506175E-002  0.11012727687352654        0.0000000000000000     
   7.0164582099736958E-002  0.11706319852174514        0.0000000000000000     
   7.1904003016472401E-002  0.12411318077601138        0.0000000000000000     
   7.3565016994712490E-002  0.13127722363632524        0.0000000000000000     
   7.5147624034457267E-002  0.13855532710268681        0.0000000000000000     
   6.2679190969625417E-002  0.10947659742405494        0.0000000000000000     
   6.4393972010253930E-002  0.11642917449066410        0.0000000000000000     
   6.6040307911215831E-002  0.12350303830984366        0.0000000000000000     
   6.7618198672511176E-002  0.13069818888159362        0.0000000000000000     
   6.9127644294139923E-002  0.13801462620591398        0.0000000000000000     
   9.3318934464482139E-002  0.13988548140867546        0.0000000000000000     
   9.4454961951931010E-002  0.14685367313733491        0.0000000000000000     
   9.5201843349757592E-002  0.15347940998742177        0.0000000000000000     
   9.5559578657961858E-002  0.15976269195893594        0.0000000000000000     
   9.5528167876543807E-002  0.16570351905187752        0.0000000000000000     
   8.7243269119628375E-002  0.13949075470406758        0.0000000000000000     
   8.8553687703333092E-002  0.14657558947052163        0.0000000000000000     
   8.9542758832988512E-002  0.15339748776377296        0.0000000000000000     
   9.0210482508594647E-002  0.15995644958382149        0.0000000000000000     
   9.0556858730151471E-002  0.16625247493066719        0.0000000000000000     
   8.1186165642953403E-002  0.13904736993540467        0.0000000000000000     
   8.2592807976232127E-002  0.14623101727493870        0.0000000000000000     
   8.3728681662451537E-002  0.15321887688646996        0.0000000000000000     
   8.4593786701611592E-002  0.16001094876999855        0.0000000000000000     
   8.5188123093712334E-002  0.16660723292552443        0.0000000000000000     
   7.5147624034457267E-002  0.13855532710268681        0.0000000000000000     
   7.6572322770628143E-002  0.14581995655058599        0.0000000000000000     
   7.7759611838146628E-002  0.15294357735551284        0.0000000000000000     
   7.8709491237012721E-002  0.15992618951746720        0.0000000000000000     
   7.9421960967226396E-002  0.16676779303644926        0.0000000000000000     
   6.9127644294139923E-002  0.13801462620591398        0.0000000000000000     
   7.0492232086521112E-002  0.14534240729746362        0.0000000000000000     
   7.1635549360073797E-002  0.15257158917090144        0.0000000000000000     
   7.2557596114797993E-002  0.15970217182622748        0.0000000000000000     
   7.3258372350693657E-002  0.16673415526344165        0.0000000000000000     
   0.0000000000000000        0.0000000000000000        0.0000000000000000     
   2.8798574212581091E-003   1.7444142270013918E-003   0.0000000000000000     
   5.8721994047716101E-003   3.8649751043246857E-003   0.0000000000000000     
   8.9770259505405053E-003   6.3616826319698814E-003   0.0000000000000000     
   1.2194337058564791E-002   9.2345368099369784E-003   0.0000000000000000     
   0.0000000000000000        0.0000000000000000        0.0000000000000000     
   2.6093540257441979E-003   1.5888658569000057E-003   0.0000000000000000     
   5.2877246830040775E-003   3.5573805950662785E-003   0.0000000000000000     
   8.0351119717796387E-003   5.9055442144988184E-003   0.0000000000000000     
   1.0851515892070878E-002   8.6333567151976268E-003   0.0000000000000000     
   0.0000000000000000        0.0000000000000000        0.0000000000000000     
   2.3385978960128425E-003   1.4591654209565211E-003   0.0000000000000000     
   4.7170661276063359E-003   3.3007156924419493E-003   0.0000000000000000     
   7.1354046947804794E-003   5.5246508144562844E-003   0.0000000000000000     
   9.5936135975352738E-003   8.1309707869995258E-003   0.0000000000000000     
   0.0000000000000000        0.0000000000000000        0.0000000000000000     
   2.0675890320640418E-003   1.3553129191709375E-003   0.0000000000000000     
   4.1602237385783836E-003   3.0949803964516950E-003   0.0000000000000000     
   6.2779041195430265E-003   5.2190024318422750E-003   0.0000000000000000     
   8.4206301749579684E-003   7.7273790253426754E-003   0.0000000000000000     
   0.0000000000000000        0.0000000000000000        0.0000000000000000     
   1.7963274338977959E-003   1.2773083515432548E-003   0.0000000000000000     
   3.6171975159202227E-003   2.9401747070955191E-003   0.0000000000000000     
   5.4626102460672808E-003   4.9885990666567936E-003   0.0000000000000000     
   7.3325656243389704E-003   7.4225814302270763E-003   0.0000000000000000     
   1.2194337058564791E-002   9.2345368099369784E-003   0.0000000000000000     
   1.5426472707422006E-002   1.2381989558340684E-002   0.0000000000000000     
   1.8575772875689692E-002   1.5702492797295704E-002   0.0000000000000000     
   2.1642237563367851E-002   1.9196046526802037E-002   0.0000000000000000     
   2.4625866770456480E-002   2.2862650746859683E-002   0.0000000000000000     
   1.0851515892070878E-002   8.6333567151976268E-003   0.0000000000000000     
   1.3683798226361014E-002   1.1659449281802715E-002   0.0000000000000000     
   1.6478820757133250E-002   1.4902453098954107E-002   0.0000000000000000     
   1.9236583484387591E-002   1.8362368166651793E-002   0.0000000000000000     
   2.1957086408124039E-002   2.2039194484895781E-002   0.0000000000000000     
   9.5936135975352738E-003   8.1309707869995258E-003   0.0000000000000000     
   1.2068502204583968E-002   1.1053339143767540E-002   0.0000000000000000     
   1.4536879884639822E-002   1.4225419418456193E-002   0.0000000000000000     
   1.6998746637702830E-002   1.7647211611065486E-002   0.0000000000000000     
   1.9454102463772997E-002   2.1318715721595421E-002   0.0000000000000000     
   8.4206301749579684E-003   7.7273790253426754E-003   0.0000000000000000     
   1.0580584642090874E-002   1.0563659144235153E-002   0.0000000000000000     
   1.2749950258209406E-002   1.3671391755801968E-002   0.0000000000000000     
   1.4928727023313559E-002   1.7050576860043114E-002   0.0000000000000000     
   1.7116914937403336E-002   2.0701214456958605E-002   0.0000000000000000     
   7.3325656243389704E-003   7.4225814302270763E-003   0.0000000000000000     
   9.2200455388817305E-003   1.0190409283205557E-002   0.0000000000000000     
   1.1118031877842003E-002   1.3240370110991429E-002   0.0000000000000000     
   1.3026524641219783E-002   1.6572463913584686E-002   0.0000000000000000     
   1.4945523829015078E-002   2.0186690690985332E-002   0.0000000000000000     
   2.4625866770456480E-002   2.2862650746859683E-002   0.0000000000000000     
   2.7529597206273314E-002   2.6727415927295120E-002   0.0000000000000000     