 <VTKFile type="UnstructuredGrid"  version="0.1"   >
 <UnstructuredGrid>
 <Piece  NumberOfPoints="          1600 "  NumberOfCells="         1024 ">
 <Points>
 <DataArray  type="Float64" NumberOfComponents="3"  format="ascii" >
   0.0000000000000000        0.0000000000000000        0.0000000000000000     
   3.1250000000000000E-002   0.0000000000000000        0.0000000000000000     
   6.2500000000000000E-002   0.0000000000000000        0.0000000000000000     
   9.3750000000000000E-002   0.0000000000000000        0.0000000000000000     
  0.12500000000000000        0.0000000000000000        0.0000000000000000     
   0.0000000000000000        3.1250000000000000E-002   0.0000000000000000     
   3.1250000000000000E-002   3.1250000000000000E-002   0.0000000000000000     
   6.2500000000000000E-002   3.1250000000000000E-002   0.0000000000000000     
   9.3750000000000000E-002   3.1250000000000000E-002   0.0000000000000000     
  0.12500000000000000        3.1250000000000000E-002   0.0000000000000000     
   0.0000000000000000        6.2500000000000000E-002   0.0000000000000000     
   3.1250000000000000E-002   6.2500000000000000E-002   0.0000000000000000     
   6.2500000000000000E-002   6.2500000000000000E-002   0.0000000000000000     
   9.3750000000000000E-002   6.2500000000000000E-002   0.0000000000000000     
  0.12500000000000000        6.2500000000000000E-002   0.0000000000000000     
   0.0000000000000000        9.3750000000000000E-002   0.0000000000000000     
   3.1250000000000000E-002   9.3750000000000000E-002   0.0000000000000000     
   6.2500000000000000E-002   9.3750000000000000E-002   0.0000000000000000     
   9.3750000000000000E-002   9.3750000000000000E-002   0.0000000000000000     
  0.12500000000000000        9.3750000000000000E-002   0.0000000000000000     
   0.0000000000000000       0.12500000000000000        0.0000000000000000     
   3.1250000000000000E-002  0.12500000000000000        0.0000000000000000     
   6.2500000000000000E-002  0.12500000000000000        0.0000000000000000     
   9.3750000000000000E-002  0.12500000000000000        0.0000000000000000     
  0.12500000000000000       0.12500000000000000        0.0000000000000000     
  0.12500000000000000        0.0000000000000000        0.0000000000000000     
  0.15625000000000000        0.0000000000000000        0.0000000000000000     
  0.18750000000000000        0.0000000000000000        0.0000000000000000     
  0.21875000000000000        0.0000000000000000        0.0000000000000000     
  0.25000000000000000        0.0000000000000000        0.0000000000000000     
  0.12500000000000000        3.1250000000000000E-002   0.0000000000000000     
  0.15625000000000000        3.1250000000000000E-002   0.0000000000000000     
  0.18750000000000000        3.1250000000000000E-002   0.0000000000000000     
  0.21875000000000000        3.1250000000000000E-002   0.0000000000000000     
  0.25000000000000000        3.1250000000000000E-002   0.0000000000000000     
  0.12500000000000000        6.2500000000000000E-002   0.0000000000000000     
  0.15625000000000000        6.2500000000000000E-002   0.0000000000000000     
  0.18750000000000000        6.2500000000000000E-002   0.0000000000000000     
  0.21875000000000000        6.2500000000000000E-002   0.0000000000000000     
  0.25000000000000000        6.2500000000000000E-002   0.0000000000000000     
  0.12500000000000000        9.3750000000000000E-002   0.0000000000000000     
  0.15625000000000000        9.3750000000000000E-002   0.0000000000000000     
  0.18750000000000000        9.3750000000000000E-002   0.0000000000000000     
  0.21875000000000000        9.3750000000000000E-002   0.0000000000000000     
  0.25000000000000000        9.3750000000000000E-002   0.0000000000000000     
  0.12500000000000000       0.12500000000000000        0.0000000000000000     
  0.15625000000000000       0.12500000000000000        0.0000000000000000     
  0.18750000000000000       0.12500000000000000        0.0000000000000000     
  0.21875000000000000       0.12500000000000000        0.0000000000000000     
  0.25000000000000000       0.12500000000000000        0.0000000000000000     
  0.25000000000000000        0.0000000000000000        0.0000000000000000     
  0.28125000000000000        0.0000000000000000        0.0000000000000000     
  0.31250000000000000        0.0000000000000000        0.0000000000000000     
  0.34375000000000000        0.0000000000000000        0.0000000000000000     
  0.37500000000000000        0.0000000000000000        0.0000000000000000     
  0.25000000000000000        3.1250000000000000E-002   0.0000000000000000     
  0.28125000000000000        3.1250000000000000E-002   0.0000000000000000     
  0.31250000000000000        3.1250000000000000E-002   0.0000000000000000     
  0.34375000000000000        3.1250000000000000E-002   0.0000000000000000     
  0.37500000000000000        3.1250000000000000E-002   0.0000000000000000     
  0.25000000000000000        6.2500000000000000E-002   0.0000000000000000     
  0.28125000000000000        6.2500000000000000E-002   0.0000000000000000     
  0.31250000000000000        6.2500000000000000E-002   0.0000000000000000     
  0.34375000000000000        6.2500000000000000E-002   0.0000000000000000     
  0.37500000000000000        6.2500000000000000E-002   0.0000000000000000     
  0.25000000000000000        9.3750000000000000E-002   0.0000000000000000     
  0.28125000000000000        9.3750000000000000E-002   0.0000000000000000     
  0.31250000000000000        9.3750000000000000E-002   0.0000000000000000     
  0.34375000000000000        9.3750000000000000E-002   0.0000000000000000     
  0.37500000000000000        9.3750000000000000E-002   0.0000000000000000     
  0.25000000000000000       0.12500000000000000        0.0000000000000000     
  0.28125000000000000       0.12500000000000000        0.0000000000000000     
  0.31250000000000000       0.12500000000000000        0.0000000000000000     
  0.34375000000000000       0.12500000000000000        0.0000000000000000     
  0.37500000000000000       0.12500000000000000        0.0000000000000000     
  0.37500000000000000        0.0000000000000000        0.0000000000000000     
  0.40625000000000000        0.0000000000000000        0.0000000000000000     
  0.43750000000000000        0.0000000000000000        0.0000000000000000     
  0.46875000000000000        0.0000000000000000        0.0000000000000000     
  0.50000000000000000        0.0000000000000000        0.0000000000000000     
  0.37500000000000000        3.1250000000000000E-002   0.0000000000000000     
  0.40625000000000000        3.1250000000000000E-002   0.0000000000000000     
  0.43750000000000000        3.1250000000000000E-002   0.0000000000000000     
  0.46875000000000000        3.1250000000000000E-002   0.0000000000000000     
  0.50000000000000000        3.1250000000000000E-002   0.0000000000000000     
  0.37500000000000000        6.2500000000000000E-002   0.0000000000000000     
  0.40625000000000000        6.2500000000000000E-002   0.0000000000000000     
  0.43750000000000000        6.2500000000000000E-002   0.0000000000000000     
  0.46875000000000000        6.2500000000000000E-002   0.0000000000000000     
  0.50000000000000000        6.2500000000000000E-002   0.0000000000000000     
  0.37500000000000000        9.3750000000000000E-002   0.0000000000000000     
  0.40625000000000000        9.3750000000000000E-002   0.0000000000000000     
  0.43750000000000000        9.3750000000000000E-002   0.0000000000000000     
  0.46875000000000000        9.3750000000000000E-002   0.0000000000000000     
  0.50000000000000000        9.3750000000000000E-002   0.0000000000000000     
  0.37500000000000000       0.12500000000000000        0.0000000000000000     
  0.40625000000000000       0.12500000000000000        0.0000000000000000     
  0.43750000000000000       0.12500000000000000        0.0000000000000000     
  0.46875000000000000       0.12500000000000000        0.0000000000000000     
  0.50000000000000000       0.12500000000000000        0.0000000000000000     
  0.50000000000000000        0.0000000000000000        0.0000000000000000     
  0.53125000000000000        0.0000000000000000        0.0000000000000000     
  0.56250000000000000        0.0000000000000000        0.0000000000000000     
  0.59375000000000000        0.0000000000000000        0.0000000000000000     
  0.62500000000000000        0.0000000000000000        0.0000000000000000     
  0.50000000000000000        3.1250000000000000E-002   0.0000000000000000     
  0.53125000000000000        3.1250000000000000E-002   0.0000000000000000     
  0.56250000000000000        3.1250000000000000E-002   0.0000000000000000     
  0.59375000000000000        3.1250000000000000E-002   0.0000000000000000     
  0.62500000000000000        3.1250000000000000E-002   0.0000000000000000     
  0.50000000000000000        6.2500000000000000E-002   0.0000000000000000     
  0.53125000000000000        6.2500000000000000E-002   0.0000000000000000     
  0.56250000000000000        6.2500000000000000E-002   0.0000000000000000     
  0.59375000000000000        6.2500000000000000E-002   0.0000000000000000     
  0.62500000000000000        6.2500000000000000E-002   0.0000000000000000     
  0.50000000000000000        9.3750000000000000E-002   0.0000000000000000     
  0.53125000000000000        9.3750000000000000E-002   0.0000000000000000     
  0.56250000000000000        9.3750000000000000E-002   0.0000000000000000     
  0.59375000000000000        9.3750000000000000E-002   0.0000000000000000     
  0.62500000000000000        9.3750000000000000E-002   0.0000000000000000     
  0.50000000000000000       0.12500000000000000        0.0000000000000000     
  0.53125000000000000       0.12500000000000000        0.0000000000000000     
  0.56250000000000000       0.12500000000000000        0.0000000000000000     
[...]
 <PointData>
 <DataArray  type="Float64" Name="disp" NumberOfComponents="3" format="ascii">
   0.0000000000000000        0.0000000000000000        0.0000000000000000     
   6.0936839834035235E-003   3.7807093908892959E-003   0.0000000000000000     
   1.1664778997049933E-002   7.3067674263277895E-003   0.0000000000000000     
   1.6713285040939233E-002   1.0578174106315480E-002   0.0000000000000000     
   2.1239202115071420E-002   1.3594929430852370E-002   0.0000000000000000     
   0.0000000000000000        0.0000000000000000        0.0000000000000000     
   4.8919438688398414E-003   3.0134883983018168E-003   0.0000000000000000     
   9.5771226096483981E-003   6.0440216945494675E-003   0.0000000000000000     
   1.4055536222425672E-002   9.0915998887429513E-003   0.0000000000000000     
   1.8327184707171661E-002   1.2156222980882269E-002   0.0000000000000000     
   0.0000000000000000        0.0000000000000000        0.0000000000000000     
   3.9560405893275599E-003   2.4172607654098623E-003   0.0000000000000000     
   7.9163593874382043E-003   5.0470193426582766E-003   0.0000000000000000     
   1.1880956394331931E-002   7.8892757317452419E-003   0.0000000000000000     
   1.5849831610008743E-002   1.0944029932670758E-002   0.0000000000000000     
   0.0000000000000000        0.0000000000000000        0.0000000000000000     
   3.2859741448666795E-003   1.9920264922134341E-003   0.0000000000000000     
   6.6824893304193488E-003   4.3157603706542166E-003   0.0000000000000000     
   1.0189545556658007E-002   6.9712016353223483E-003   0.0000000000000000     
   1.3807142823582660E-002   9.9583502862178302E-003   0.0000000000000000     
   0.0000000000000000        0.0000000000000000        0.0000000000000000     
   2.8817445354571997E-003   1.7377855787125301E-003   0.0000000000000000     
   5.8755124385918341E-003   3.8502447785372885E-003   0.0000000000000000     
   8.9813037094039049E-003   6.3373775994742740E-003   0.0000000000000000     
   1.2199118347893410E-002   9.1991840415234869E-003   0.0000000000000000     
   2.1239202115071420E-002   1.3594929430852370E-002   0.0000000000000000     
   2.5454542370073906E-002   1.6582944911856950E-002   0.0000000000000000     
   2.9571317956574101E-002   1.9768132061247716E-002   0.0000000000000000     
   3.3589528874572006E-002   2.3150490879024661E-002   0.0000000000000000     
   3.7509175124067623E-002   2.6730021365187789E-002   0.0000000000000000     
   1.8327184707171661E-002   1.2156222980882269E-002   0.0000000000000000     
   2.2430904933754554E-002   1.5303518672147598E-002   0.0000000000000000     
   2.6405533772042529E-002   1.8599114663719111E-002   0.0000000000000000     
   3.0251071222035585E-002   2.2043010955596808E-002   0.0000000000000000     
   3.3967517283733720E-002   2.5635207547780689E-002   0.0000000000000000     
   1.5849831610008743E-002   1.0944029932670758E-002   0.0000000000000000     
   1.9752466572255829E-002   1.4168771857142805E-002   0.0000000000000000     
   2.3518342818860397E-002   1.7520991416869369E-002   0.0000000000000000     
   2.7147460349822426E-002   2.1000688611850438E-002   0.0000000000000000     
   3.0639819165141927E-002   2.4607863442086021E-002   0.0000000000000000     
   1.3807142823582660E-002   9.9583502862178302E-003   0.0000000000000000     
   1.7419227285577744E-002   1.3178704466842569E-002   0.0000000000000000     
   2.0909745097027702E-002   1.6533762320698479E-002   0.0000000000000000     
   2.4278696257932542E-002   2.0023523847785551E-002   0.0000000000000000     
   2.7526080768292251E-002   2.3647989048103796E-002   0.0000000000000000     
   1.2199118347893410E-002   9.1991840415234869E-003   0.0000000000000000     
   1.5431187073720281E-002   1.2333316501246892E-002   0.0000000000000000     
   1.8579740606544454E-002   1.5637427375206445E-002   0.0000000000000000     
   2.1644778946365920E-002   1.9111516663402148E-002   0.0000000000000000     
   2.4626302093184685E-002   2.2755584365834004E-002   0.0000000000000000     
   3.7509175124067623E-002   2.6730021365187789E-002   0.0000000000000000     
   4.1347260173327807E-002   3.0514624663127952E-002   0.0000000000000000     
   4.5120787490619402E-002   3.4512201916235996E-002   0.0000000000000000     
   4.8829757075942400E-002   3.8722753124511920E-002   0.0000000000000000     
   5.2474168929296822E-002   4.3146278287955725E-002   0.0000000000000000     
   3.3967517283733720E-002   2.5635207547780689E-002   0.0000000000000000     
   3.7583005940155137E-002   2.9411935559452002E-002   0.0000000000000000     
   4.1125671174318035E-002   3.3409426109791994E-002   0.0000000000000000     
   4.4595512986222406E-002   3.7627679198800675E-002   0.0000000000000000     
   4.7992531375868258E-002   4.2066694826478040E-002   0.0000000000000000     
   3.0639819165141927E-002   2.4607863442086021E-002   0.0000000000000000     
   3.4024413495515687E-002   2.8391051872029401E-002   0.0000000000000000     
   3.7330237571640466E-002   3.2398789866133863E-002   0.0000000000000000     
   4.0557291393516291E-002   3.6631077424399403E-002   0.0000000000000000     
   4.3705574961143134E-002   4.1087914546826032E-002   0.0000000000000000     
   2.7526080768292251E-002   2.3647989048103796E-002   0.0000000000000000     
   3.0671482839409438E-002   2.7451973600860161E-002   0.0000000000000000     
   3.3734486682586710E-002   3.1480293185261597E-002   0.0000000000000000     
   3.6715092297824048E-002   3.5732947801308111E-002   0.0000000000000000     
   3.9613299685121464E-002   4.0209937448999707E-002   0.0000000000000000     
   2.4626302093184685E-002   2.2755584365834004E-002   0.0000000000000000     
   2.7524213971836405E-002   2.6594700745944267E-002   0.0000000000000000     
   3.0338418507156739E-002   3.0653936067175196E-002   0.0000000000000000     
   3.3068915699145690E-002   3.4933290329526807E-002   0.0000000000000000     
   3.5715705547803248E-002   3.9432763532999071E-002   0.0000000000000000     
   5.2474168929296822E-002   4.3146278287955725E-002   0.0000000000000000     
   5.6035905006273576E-002   4.7787272605169739E-002   0.0000000000000000     
   5.9496847262463536E-002   5.2650231274756321E-002   0.0000000000000000     
   6.2856995697866749E-002   5.7735154296715441E-002   0.0000000000000000     
   6.6116350312483169E-002   6.3042041671047128E-002   0.0000000000000000     
   4.7992531375868258E-002   4.2066694826478040E-002   0.0000000000000000     
   5.1320631722784130E-002   4.6730883039256002E-002   0.0000000000000000     
   5.4583719406498546E-002   5.1624653883566539E-002   0.0000000000000000     
   5.7781794427011528E-002   5.6748007359409602E-002   0.0000000000000000     
   6.0914856784323068E-002   6.2100943466785234E-002   0.0000000000000000     
   4.3705574961143134E-002   4.1087914546826032E-002   0.0000000000000000     
   4.6790238483417207E-002   4.5772849820458761E-002   0.0000000000000000     
   4.9826432169234700E-002   5.0689431832342653E-002   0.0000000000000000     
   5.2814156018595605E-002   5.5837660582477702E-002   0.0000000000000000     
   5.5753410031499924E-002   6.1217536070863901E-002   0.0000000000000000     
   3.9613299685121464E-002   4.0209937448999707E-002   0.0000000000000000     
   4.2444725288172822E-002   4.4913172948778016E-002   0.0000000000000000     
   4.5224985550671989E-002   4.9844565121084691E-002   0.0000000000000000     
   4.7954080472618968E-002   5.5004113965919726E-002   0.0000000000000000     
   5.0632010054013743E-002   6.0391819483283128E-002   0.0000000000000000     
   3.5715705547803248E-002   3.9432763532999071E-002   0.0000000000000000     
   3.8284092137050973E-002   4.4151852424213774E-002   0.0000000000000000     
   4.0779379550810436E-002   4.9090053749792639E-002   0.0000000000000000     
   4.3201567789081616E-002   5.4247367509735689E-002   0.0000000000000000     
   4.5550656851864511E-002   5.9623793704042923E-002   0.0000000000000000     
   6.6116350312483169E-002   6.3042041671047128E-002   0.0000000000000000     
   6.9281933572306109E-002   6.8555998849264915E-002   0.0000000000000000     
   7.2360767943328838E-002   7.4262131282882338E-002   0.0000000000000000     
   7.5352853425551369E-002   8.0160438971899409E-002   0.0000000000000000     
   7.8258190018973661E-002   8.6250921916316128E-002   0.0000000000000000     
   6.0914856784323068E-002   6.2100943466785234E-002   0.0000000000000000     
   6.3977390830379843E-002   6.7660617064382408E-002   0.0000000000000000     
   6.6963880917128515E-002   7.3404183010890148E-002   0.0000000000000000     
   6.9874327044569084E-002   7.9331641306308431E-002   0.0000000000000000     
   7.2708729212701564E-002   8.5442991950637287E-002   0.0000000000000000     
   5.5753410031499924E-002   6.1217536070863901E-002   0.0000000000000000     
   5.8635858386073908E-002   6.6803560260959446E-002   0.0000000000000000     
   6.1453165260443830E-002   7.2570235116222556E-002   0.0000000000000000     
   6.4205330654609649E-002   7.8517560636653216E-002   0.0000000000000000     
   6.6892354568571399E-002   8.4645536822251441E-002   0.0000000000000000     
   5.0632010054013743E-002   6.0391819483283128E-002   0.0000000000000000     
   5.3257336239388331E-002   6.5984828438996015E-002   0.0000000000000000     
   5.5828620973274769E-002   7.1760287598879563E-002   0.0000000000000000     
   5.8345864255673043E-002   7.7718196962933736E-002   0.0000000000000000     
   6.0809066086583159E-002   8.3858556531158548E-002   0.0000000000000000     
   4.5550656851864511E-002   5.9623793704042923E-002   0.0000000000000000     
   4.7841824390323112E-002   6.5204421598492157E-002   0.0000000000000000     
   5.0090248055621359E-002   7.0974340458861168E-002   0.0000000000000000     
   5.2295927847759278E-002   7.6933550285150004E-002   0.0000000000000000     
   5.4458863766736851E-002   8.3082051077358637E-002   0.0000000000000000     
   7.8258190018973661E-002   8.6250921916316128E-002   0.0000000000000000     
   8.1084913766047761E-002   9.2511205501107932E-002   0.0000000000000000     
   8.3841160709225662E-002   9.8918915111250283E-002   0.0000000000000000     
   8.6526930848507350E-002  0.10547405074674314        0.0000000000000000     
   8.9142224183892810E-002  0.11217661240758654        0.0000000000000000     
   7.2708729212701564E-002   8.5442991950637287E-002   0.0000000000000000     
   7.5465709244220802E-002   9.1724453627058694E-002   0.0000000000000000     
   7.8143888961821673E-002   9.8162245018754590E-002   0.0000000000000000     
   8.0743268365504162E-002  0.10475636612572502        0.0000000000000000     
   8.3263847455268269E-002  0.11150681694796996        0.0000000000000000     
   6.6892354568571399E-002   8.4645536822251441E-002   0.0000000000000000     
   6.9504343271675248E-002   9.0944905586752486E-002   0.0000000000000000     
   7.2031403033267383E-002   9.7406408843891720E-002   0.0000000000000000     
   7.4473533853347790E-002  0.10403004659366910        0.0000000000000000     
   7.6830735731916483E-002  0.11081581883608463        0.0000000000000000     
   6.0809066086583159E-002   8.3858556531158548E-002   0.0000000000000000     
   6.3200815848411085E-002   9.0172561380189406E-002   0.0000000000000000     
   6.5503702923562765E-002   9.6651406586661673E-002   0.0000000000000000     
   6.7717727312038234E-002  0.10329509215057542        0.0000000000000000     
   6.9842889013837450E-002  0.11010361807193057        0.0000000000000000     
   5.4458863766736851E-002   8.3082051077358637E-002   0.0000000000000000     
   5.6555126974428306E-002   8.9407421007369384E-002   0.0000000000000000     
   5.8560788632707840E-002   9.5897238247064462E-002   0.0000000000000000     
   6.0475848741575466E-002  0.10255150279644393        0.0000000000000000     
   6.2300307301031178E-002  0.10937021465550775        0.0000000000000000     
   8.9142224183892810E-002  0.11217661240758654        0.0000000000000000     
   9.1651747172471543E-002  0.11904165113896220        0.0000000000000000     
   9.4020206271332979E-002  0.12608421798605179        0.0000000000000000     
   9.6247601480477118E-002  0.13330431294885539        0.0000000000000000     
   9.8333932799903989E-002  0.14070193602737294        0.0000000000000000     
   8.3263847455268269E-002  0.11150681694796996        0.0000000000000000     
   8.5688623484636767E-002  0.11842659567558420        0.0000000000000000     
   8.8000593707132341E-002  0.12552870049866247        0.0000000000000000     
   9.0199758122755005E-002  0.13281313141720477        0.0000000000000000     
   9.2286116731504803E-002  0.14027988843121114        0.0000000000000000     
   7.6830735731916483E-002  0.11081581883608463        0.0000000000000000     
   7.9095782164278386E-002  0.11777207333587103        0.0000000000000000     
   8.1261446645738367E-002  0.12490715785776098        0.0000000000000000     
   8.3327729176296494E-002  0.13222107240175449        0.0000000000000000     
   8.5294629755952714E-002  0.13971381696785160        0.0000000000000000     
   6.9842889013837450E-002  0.11010361807193057        0.0000000000000000     
   7.1873223211396428E-002  0.11707808411982271        0.0000000000000000     
   7.3802765087151140E-002  0.12421959006334737        0.0000000000000000     
   7.5631514641101558E-002  0.13152813590250459        0.0000000000000000     
   7.7359471873247723E-002  0.13900372163729427        0.0000000000000000     
   6.2300307301031178E-002  0.10937021465550775        0.0000000000000000     
   6.4020946625990907E-002  0.11634462802743924        0.0000000000000000     
   6.5624549031370605E-002  0.12346599711542164        0.0000000000000000     
   6.7111114517170251E-002  0.13073432191945497        0.0000000000000000     
   6.8480643083389844E-002  0.13814960243953919        0.0000000000000000     
   9.8333932799903989E-002  0.14070193602737294        0.0000000000000000     
  0.10027683016273432       0.14818781628509681        0.0000000000000000     
  0.10207392350208891       0.15567268278551935        0.0000000000000000     
  0.10372521281796773       0.16315653552864054        0.0000000000000000     
  0.10523069811037083       0.17063937451446043        0.0000000000000000     
   9.2286116731504803E-002  0.14027988843121114        0.0000000000000000     
   9.4264657024133461E-002  0.14787335449239866        0.0000000000000000     
   9.6140366491392779E-002  0.15553791255248450        0.0000000000000000     
   9.7913245133282770E-002  0.16327356261146858        0.0000000000000000     
   9.9583292949803434E-002  0.17108030466935098        0.0000000000000000     
   8.5294629755952714E-002  0.13971381696785160        0.0000000000000000     
   8.7166392203898421E-002  0.14733860943582894        0.0000000000000000     
   8.8947260339324999E-002  0.15504866768546313        0.0000000000000000     
   9.0637234162232475E-002  0.16284399171675426        0.0000000000000000     
   9.2236313672620793E-002  0.17072458152970232        0.0000000000000000     
   7.7359471873247723E-002  0.13900372163729427        0.0000000000000000     
   7.8982035702029191E-002  0.14658358111538750        0.0000000000000000     
   8.0494605045885556E-002  0.15420494818445529        0.0000000000000000     
   8.1897179904816791E-002  0.16186782284449755        0.0000000000000000     
   8.3189760278822925E-002  0.16957220509551443        0.0000000000000000     
   6.8480643083389844E-002  0.13814960243953919        0.0000000000000000     
   6.9711587518525769E-002  0.14560826953107447        0.0000000000000000     
   7.0782400611074409E-002  0.15300675404946093        0.0000000000000000     
   7.1693082361035762E-002  0.16034505599469853        0.0000000000000000     
   7.2443632768409816E-002  0.16762317536678734        0.0000000000000000     
   0.0000000000000000        0.0000000000000000        0.0000000000000000     
   2.8817445354571997E-003   1.7377855787125301E-003   0.0000000000000000     
   5.8755124385918341E-003   3.8502447785372885E-003   0.0000000000000000     
   8.9813037094039049E-003   6.3373775994742740E-003   0.0000000000000000     
   1.2199118347893410E-002   9.1991840415234869E-003   0.0000000000000000     
   0.0000000000000000        0.0000000000000000        0.0000000000000000     
   2.6103853442876433E-003   1.5823205968437503E-003   0.0000000000000000     
   5.2890580920764846E-003   3.5436624724943565E-003   0.0000000000000000     
   8.0360182433665238E-003   5.8840256269518188E-003   0.0000000000000000     
   1.0851265798157761E-002   8.6034100602161347E-003   0.0000000000000000     
   0.0000000000000000        0.0000000000000000        0.0000000000000000     
   2.3389301545465343E-003   1.4534141185436928E-003   0.0000000000000000     
   4.7167556709941253E-003   3.2892033587122865E-003   0.0000000000000000     
   7.1334765493427715E-003   5.5073677205057818E-003   0.0000000000000000     
   9.5890927895924735E-003   8.1079072039241772E-003   0.0000000000000000     
   0.0000000000000000        0.0000000000000000        0.0000000000000000     
   2.0673789662338715E-003   1.3510661438123582E-003   0.0000000000000000     
   4.1586051753447536E-003   3.0868674371910799E-003   0.0000000000000000     
   6.2736786273326437E-003   5.2074038801361638E-003   0.0000000000000000     
   8.4125993221975445E-003   7.7126754726476116E-003   0.0000000000000000     
   0.0000000000000000        0.0000000000000000        0.0000000000000000     
   1.7957317793496558E-003   1.2752766726497459E-003   0.0000000000000000     
   3.6146066051283713E-003   2.9366547079307343E-003   0.0000000000000000     
   5.4566244773361456E-003   4.9841341058429658E-003   0.0000000000000000     
   7.3217853959729800E-003   7.4177148663864380E-003   0.0000000000000000     
   1.2199118347893410E-002   9.1991840415234869E-003   0.0000000000000000     
   1.5431187073720281E-002   1.2333316501246892E-002   0.0000000000000000     
   1.8579740606544454E-002   1.5637427375206445E-002   0.0000000000000000     
   2.1644778946365920E-002   1.9111516663402148E-002   0.0000000000000000     
   2.4626302093184685E-002   2.2755584365834004E-002   0.0000000000000000     
   1.0851265798157761E-002   8.6034100602161347E-003   0.0000000000000000     
   1.3680237589410185E-002   1.1619306384209167E-002   0.0000000000000000     
   1.6468370450083782E-002   1.4849205210852765E-002   0.0000000000000000     
   1.9215664380178552E-002   1.8293106540146927E-002   0.0000000000000000     
   2.1922119379694502E-002   2.1951010372091660E-002   0.0000000000000000     
   9.5890927895924735E-003   8.1079072039241772E-003   0.0000000000000000     
   1.2058270485374176E-002   1.1023372539582788E-002   0.0000000000000000     
   1.4515675730318827E-002   1.4186314458096922E-002   0.0000000000000000     
   1.6961308524426420E-002   1.7596732959466583E-002   0.0000000000000000     
   1.9395168867696967E-002   2.1254628043691770E-002   0.0000000000000000     
   8.4125993221975445E-003   7.7126754726476116E-003   0.0000000000000000     
   1.0565285761612260E-002   1.0545514967367756E-002   0.0000000000000000     
   1.2721656447249588E-002   1.3648755116938922E-002   0.0000000000000000     
   1.4881711379109527E-002   1.7022395921361112E-002   0.0000000000000000     
   1.7045450557192084E-002   2.0666437380634332E-002   0.0000000000000000     
   7.3217853959729800E-003   7.4177148663864380E-003   0.0000000000000000     
   9.2012834181244302E-003   1.0185733667564067E-002   0.0000000000000000     
   1.1086312600876062E-002   1.3236527187378765E-002   0.0000000000000000     
   1.2976872944227868E-002   1.6570095425830524E-002   0.0000000000000000     
   1.4872964448179850E-002   2.0186438382919357E-002   0.0000000000000000     
   2.4626302093184685E-002   2.2755584365834004E-002   0.0000000000000000     
   2.7524213971836405E-002   2.6594700745944267E-002   0.0000000000000000     