 <VTKFile type="UnstructuredGrid"  version="0.1"   >
 <UnstructuredGrid>
 <Piece  NumberOfPoints="          1600 "  NumberOfCells="         1024 ">
 <Points>
 <DataArray  type="Float64" NumberOfComponents="3"  format="ascii" >
   0.0000000000000000        0.0000000000000000        0.0000000000000000     
   3.1250000000000000E-002   0.0000000000000000        0.0000000000000000     
   6.2500000000000000E-002   0.0000000000000000        0.0000000000000000     
   9.3750000000000000E-002   0.0000000000000000        0.0000000000000000     
  0.12500000000000000        0.0000000000000000        0.0000000000000000     
   0.0000000000000000        3.1250000000000000E-002   0.0000000000000000     
   3.1250000000000000E-002   3.1250000000000000E-002   0.0000000000000000     
   6.2500000000000000E-002   3.1250000000000000E-002   0.0000000000000000     
   9.3750000000000000E-002   3.1250000000000000E-002   0.0000000000000000     
  0.12500000000000000        3.1250000000000000E-002   0.0000000000000000     
   0.0000000000000000        6.2500000000000000E-002   0.0000000000000000     
   3.1250000000000000E-002   6.2500000000000000E-002   0.0000000000000000     
   6.2500000000000000E-002   6.2500000000000000E-002   0.0000000000000000     
   9.3750000000000000E-002   6.2500000000000000E-002   0.0000000000000000     
  0.12500000000000000        6.2500000000000000E-002   0.0000000000000000     
   0.0000000000000000        9.3750000000000000E-002   0.0000000000000000     
   3.1250000000000000E-002   9.3750000000000000E-002   0.0000000000000000     
   6.2500000000000000E-002   9.3750000000000000E-002   0.0000000000000000     
   9.3750000000000000E-002   9.3750000000000000E-002   0.0000000000000000     
  0.12500000000000000        9.3750000000000000E-002   0.0000000000000000     
   0.0000000000000000       0.12500000000000000        0.0000000000000000     
   3.1250000000000000E-002  0.12500000000000000        0.0000000000000000     
   6.2500000000000000E-002  0.12500000000000000        0.0000000000000000     
   9.3750000000000000E-002  0.12500000000000000        0.0000000000000000     
  0.12500000000000000       0.12500000000000000        0.0000000000000000     
  0.12500000000000000        0.0000000000000000        0.0000000000000000     
  0.15625000000000000        0.0000000000000000        0.0000000000000000     
  0.18750000000000000        0.0000000000000000        0.0000000000000000     
  0.21875000000000000        0.0000000000000000        0.0000000000000000     
  0.25000000000000000        0.0000000000000000        0.0000000000000000     
  0.12500000000000000        3.1250000000000000E-002   0.0000000000000000     
  0.15625000000000000        3.1250000000000000E-002   0.0000000000000000     
  0.18750000000000000        3.1250000000000000E-002   0.0000000000000000     
  0.21875000000000000        3.1250000000000000E-002   0.0000000000000000     
  0.25000000000000000        3.1250000000000000E-002   0.0000000000000000     
  0.12500000000000000        6.2500000000000000E-002   0.0000000000000000     
  0.15625000000000000        6.2500000000000000E-002   0.0000000000000000     
  0.18750000000000000        6.2500000000000000E-002   0.0000000000000000     
  0.21875000000000000        6.2500000000000000E-002   0.0000000000000000     
  0.25000000000000000        6.2500000000000000E-002   0.0000000000000000     
  0.12500000000000000        9.3750000000000000E-002   0.0000000000000000     
  0.15625000000000000        9.3750000000000000E-002   0.0000000000000000     
  0.18750000000000000        9.3750000000000000E-002   0.0000000000000000     
  0.21875000000000000        9.3750000000000000E-002   0.0000000000000000     
  0.25000000000000000        9.3750000000000000E-002   0.0000000000000000     
  0.12500000000000000       0.12500000000000000        0.0000000000000000     
  0.15625000000000000       0.12500000000000000        0.0000000000000000     
  0.18750000000000000       0.12500000000000000        0.0000000000000000     
  0.21875000000000000       0.12500000000000000        0.0000000000000000     
  0.25000000000000000       0.12500000000000000        0.0000000000000000     
  0.25000000000000000        0.0000000000000000        0.0000000000000000     
  0.28125000000000000        0.0000000000000000        0.0000000000000000     
  0.31250000000000000        0.0000000000000000        0.0000000000000000     
  0.34375000000000000        0.0000000000000000        0.0000000000000000     
  0.37500000000000000        0.0000000000000000        0.0000000000000000     
  0.25000000000000000        3.1250000000000000E-002   0.0000000000000000     
  0.28125000000000000        3.1250000000000000E-002   0.0000000000000000     
  0.31250000000000000        3.1250000000000000E-002   0.0000000000000000     
  0.34375000000000000        3.1250000000000000E-002   0.0000000000000000     
  0.37500000000000000        3.1250000000000000E-002   0.0000000000000000     
  0.25000000000000000        6.2500000000000000E-002   0.0000000000000000     
  0.28125000000000000        6.2500000000000000E-002   0.0000000000000000     
  0.31250000000000000        6.2500000000000000E-002   0.0000000000000000     
  0.34375000000000000        6.2500000000000000E-002   0.0000000000000000     
  0.37500000000000000        6.2500000000000000E-002   0.0000000000000000     
  0.25000000000000000        9.3750000000000000E-002   0.0000000000000000     
  0.28125000000000000        9.3750000000000000E-002   0.0000000000000000     
  0.31250000000000000        9.3750000000000000E-002   0.0000000000000000     
  0.34375000000000000        9.3750000000000000E-002   0.0000000000000000     
  0.37500000000000000        9.3750000000000000E-002   0.0000000000000000     
  0.25000000000000000       0.12500000000000000        0.0000000000000000     
  0.28125000000000000       0.12500000000000000        0.0000000000000000     
  0.31250000000000000       0.12500000000000000        0.0000000000000000     
  0.34375000000000000       0.12500000000000000        0.0000000000000000     
  0.37500000000000000       0.12500000000000000        0.0000000000000000     
  0.37500000000000000        0.0000000000000000        0.0000000000000000     
  0.40625000000000000        0.0000000000000000        0.0000000000000000     
  0.43750000000000000        0.0000000000000000        0.0000000000000000     
  0.46875000000000000        0.0000000000000000        0.0000000000000000     
  0.50000000000000000        0.0000000000000000        0.0000000000000000     
  0.37500000000000000        3.1250000000000000E-002   0.0000000000000000     
  0.40625000000000000        3.1250000000000000E-002   0.0000000000000000     
  0.43750000000000000        3.1250000000000000E-002   0.0000000000000000     
  0.46875000000000000        3.1250000000000000E-002   0.0000000000000000     
  0.50000000000000000        3.1250000000000000E-002   0.0000000000000000     
  0.37500000000000000        6.2500000000000000E-002   0.0000000000000000     
  0.40625000000000000        6.2500000000000000E-002   0.0000000000000000     
  0.43750000000000000        6.2500000000000000E-002   0.0000000000000000     
  0.46875000000000000        6.2500000000000000E-002   0.0000000000000000     
  0.50000000000000000        6.2500000000000000E-002   0.0000000000000000     
  0.37500000000000000        9.3750000000000000E-002   0.0000000000000000     
  0.40625000000000000        9.3750000000000000E-002   0.0000000000000000     
  0.43750000000000000        9.3750000000000000E-002   0.0000000000000000     
  0.46875000000000000        9.3750000000000000E-002   0.0000000000000000     
  0.50000000000000000        9.3750000000000000E-002   0.0000000000000000     
  0.37500000000000000       0.12500000000000000        0.0000000000000000     
  0.40625000000000000       0.12500000000000000        0.0000000000000000     
  0.43750000000000000       0.12500000000000000        0.0000000000000000     
  0.46875000000000000       0.12500000000000000        0.0000000000000000     
  0.50000000000000000       0.12500000000000000        0.0000000000000000     
  0.50000000000000000        0.0000000000000000        0.0000000000000000     
  0.53125000000000000        0.0000000000000000        0.0000000000000000     
  0.56250000000000000        0.0000000000000000        0.0000000000000000     
  0.59375000000000000        0.0000000000000000        0.0000000000000000     
  0.62500000000000000        0.0000000000000000        0.0000000000000000     
  0.50000000000000000        3.1250000000000000E-002   0.0000000000000000     
  0.53125000000000000        3.1250000000000000E-002   0.0000000000000000     
  0.56250000000000000        3.1250000000000000E-002   0.0000000000000000     
  0.59375000000000000        3.1250000000000000E-002   0.0000000000000000     
  0.62500000000000000        3.1250000000000000E-002   0.0000000000000000     
  0.50000000000000000        6.2500000000000000E-002   0.0000000000000000     
  0.53125000000000000        6.2500000000000000E-002   0.0000000000000000     
  0.56250000000000000        6.2500000000000000E-002   0.0000000000000000     
  0.59375000000000000        6.2500000000000000E-002   0.0000000000000000     
  0.62500000000000000        6.2500000000000000E-002   0.0000000000000000     
  0.50000000000000000        9.3750000000000000E-002   0.0000000000000000     
  0.53125000000000000        9.3750000000000000E-002   0.0000000000000000     
  0.56250000000000000        9.3750000000000000E-002   0.0000000000000000     
  0.59375000000000000        9.3750000000000000E-002   0.0000000000000000     
  0.62500000000000000        9.3750000000000000E-002   0.0000000000000000     
  0.50000000000000000       0.12500000000000000        0.0000000000000000     
  0.53125000000000000       0.12500000000000000        0.0000000000000000     
  0.56250000000000000       0.12500000000000000        0.0000000000000000     
[...]
 <PointData>
 <DataArray  type="Float64" Name="disp" NumberOfComponents="3" format="ascii">
   0.0000000000000000        0.0000000000000000        0.0000000000000000     
   6.0960069693433228E-003   3.7903274598739536E-003   0.0000000000000000     
   1.1666082892117312E-002   7.3237702205245867E-003   0.0000000000000000     
   1.6710227768321970E-002   1.0600328281951900E-002   0.0000000000000000     
   2.1228441597957289E-002   1.3620001644155891E-002   0.0000000000000000     
   0.0000000000000000        0.0000000000000000        0.0000000000000000     
   4.8911766784664364E-003   3.0220299172699066E-003   0.0000000000000000     
   9.5736633999504578E-003   6.0604507097029633E-003   0.0000000000000000     
   1.4047460164452064E-002   9.1152623772991700E-003   0.0000000000000000     
   1.8312566971971256E-002   1.2186464920058530E-002   0.0000000000000000     
   0.0000000000000000        0.0000000000000000        0.0000000000000000     
   3.9535732702611912E-003   2.4250169873495184E-003   0.0000000000000000     
   7.9106116584637277E-003   5.0628272651413930E-003   0.0000000000000000     
   1.1871115164607610E-002   7.9134308333756228E-003   0.0000000000000000     
   1.5835083788692837E-002   1.0976827692052210E-002   0.0000000000000000     
   0.0000000000000000        0.0000000000000000        0.0000000000000000     
   3.2831967447275873E-003   1.9992886701127891E-003   0.0000000000000000     
   6.6769276676571232E-003   4.3308998868398750E-003   0.0000000000000000     
   1.0181192768788606E-002   6.9948336501812584E-003   0.0000000000000000     
   1.3795992048122036E-002   9.9910899601369403E-003   0.0000000000000000     
   0.0000000000000000        0.0000000000000000        0.0000000000000000     
   2.8800471018656246E-003   1.7448449655597187E-003   0.0000000000000000     
   5.8726114275306418E-003   3.8646685747984110E-003   0.0000000000000000     
   8.9776929769950515E-003   6.3594708277160761E-003   0.0000000000000000     
   1.2195291750258854E-002   9.2292517243127148E-003   0.0000000000000000     
   2.1228441597957289E-002   1.3620001644155891E-002   0.0000000000000000     
   2.5433518004910553E-002   1.6613173205950724E-002   0.0000000000000000     
   2.9538250613069039E-002   1.9810225866150558E-002   0.0000000000000000     
   3.3542639422432734E-002   2.3211159624755392E-002   0.0000000000000000     
   3.7446684433001656E-002   2.6815974481765228E-002   0.0000000000000000     
   1.8312566971971256E-002   1.2186464920058530E-002   0.0000000000000000     
   2.2407207203370180E-002   1.5342161509795026E-002   0.0000000000000000     
   2.6369604239510978E-002   1.8650455318322639E-002   0.0000000000000000     
   3.0199758080393650E-002   2.2111346345641384E-002   0.0000000000000000     
   3.3897668726018196E-002   2.5724834591751251E-002   0.0000000000000000     
   1.5835083788692837E-002   1.0976827692052210E-002   0.0000000000000000     
   1.9730799177608047E-002   1.4211607458506316E-002   0.0000000000000000     
   2.3486542978241872E-002   1.7576359750073104E-002   0.0000000000000000     
   2.7102315190594303E-002   2.1071084566752569E-002   0.0000000000000000     
   3.0578115814665349E-002   2.4695781908544719E-002   0.0000000000000000     
   1.3795992048122036E-002   9.9910899601369403E-003   0.0000000000000000     
   1.7404293927624156E-002   1.3221511052084604E-002   0.0000000000000000     
   2.0889066829261709E-002   1.6587939161401943E-002   0.0000000000000000     
   2.4250310753034691E-002   2.0090374288088953E-002   0.0000000000000000     
   2.7488025698943104E-002   2.3728816432145635E-002   0.0000000000000000     
   1.2195291750258854E-002   9.2292517243127148E-003   0.0000000000000000     
   1.5427691453418515E-002   1.2371872290529887E-002   0.0000000000000000     
   1.8577175792570500E-002   1.5685193552309164E-002   0.0000000000000000     
   2.1643744767714822E-002   1.9169215509650533E-002   0.0000000000000000     
   2.4627398378851462E-002   2.2823938162554010E-002   0.0000000000000000     
   3.7446684433001656E-002   2.6815974481765228E-002   0.0000000000000000     
   4.1255216819793536E-002   3.0620525100199261E-002   0.0000000000000000     
   4.4973067757826134E-002   3.4620666143076691E-002   0.0000000000000000     
   4.8600237247099450E-002   3.8816397610397520E-002   0.0000000000000000     
   5.2136725287613483E-002   4.3207719502161748E-002   0.0000000000000000     
   3.3897668726018196E-002   2.5724834591751251E-002   0.0000000000000000     
   3.7486494533799514E-002   2.9520361181456966E-002   0.0000000000000000     
   4.0989393861152489E-002   3.3527367239563260E-002   0.0000000000000000     
   4.4406366708077107E-002   3.7745852766070141E-002   0.0000000000000000     
   4.7737413074573382E-002   4.2175817760977605E-002   0.0000000000000000     
   3.0578115814665349E-002   2.4695781908544719E-002   0.0000000000000000     
   3.3943072929128140E-002   2.8495608199304721E-002   0.0000000000000000     
   3.7226314612655784E-002   3.2515719862887760E-002   0.0000000000000000     
   4.0427840865248296E-002   3.6756116899293825E-002   0.0000000000000000     
   4.3547651686905678E-002   4.1216799308522921E-002   0.0000000000000000     
   2.7488025698943104E-002   2.3728816432145635E-002   0.0000000000000000     
   3.0624952005779402E-002   2.7546266153742536E-002   0.0000000000000000     
   3.3683830012336047E-002   3.1585724013050182E-002   0.0000000000000000     
   3.6664659718613039E-002   3.5847190010068579E-002   0.0000000000000000     
   3.9567441124610372E-002   4.0330664144797718E-002   0.0000000000000000     
   2.4627398378851462E-002   2.2823938162554010E-002   0.0000000000000000     
   2.7532131763753315E-002   2.6672335044770398E-002   0.0000000000000000     
   3.0361940060193267E-002   3.0737379690050522E-002   0.0000000000000000     
   3.3116823268171315E-002   3.5019072098394381E-002   0.0000000000000000     
   3.5796781387687458E-002   3.9517412269801981E-002   0.0000000000000000     
   5.2136725287613483E-002   4.3207719502161748E-002   0.0000000000000000     
   5.5577782859952629E-002   4.7798452483532622E-002   0.0000000000000000     
   5.8918660944701308E-002   5.2592417219673386E-002   0.0000000000000000     
   6.2159359541859534E-002   5.7589613710584062E-002   0.0000000000000000     
   6.5299878651427279E-002   6.2790041956264628E-002   0.0000000000000000     
   4.7737413074573382E-002   4.2175817760977605E-002   0.0000000000000000     
   5.0978274452875415E-002   4.6809691856479159E-002   0.0000000000000000     
   5.4124692335217280E-002   5.1639904684768326E-002   0.0000000000000000     
   5.7176666721598997E-002   5.6666456245845105E-002   0.0000000000000000     
   6.0134197612020573E-002   6.1889346539709497E-002   0.0000000000000000     
   4.3547651686905678E-002   4.1216799308522921E-002   0.0000000000000000     
   4.6582564431213953E-002   4.5884091398543485E-002   0.0000000000000000     
   4.9529396451759168E-002   5.0744317477323914E-002   0.0000000000000000     
   5.2388147748541308E-002   5.5797477544864207E-002   0.0000000000000000     
   5.5158818321560388E-002   6.1043571601164380E-002   0.0000000000000000     
   3.9567441124610372E-002   4.0330664144797718E-002   0.0000000000000000     
   4.2390652794968280E-002   4.5021651109725579E-002   0.0000000000000000     
   4.5132773294326980E-002   4.9905655597340122E-002   0.0000000000000000     
   4.7793802622686475E-002   5.4982677607641368E-002   0.0000000000000000     
   5.0373740780046757E-002   6.0252717140629290E-002   0.0000000000000000     
   3.5796781387687458E-002   3.9517412269801981E-002   0.0000000000000000     
   3.8402539544138359E-002   4.4222370990025461E-002   0.0000000000000000     
   4.0934822862920703E-002   4.9123919044816992E-002   0.0000000000000000     
   4.3393631344034470E-002   5.4222056434176567E-002   0.0000000000000000     
   4.5778964987479666E-002   5.9516783158104193E-002   0.0000000000000000     
   6.5299878651427279E-002   6.2790041956264628E-002   0.0000000000000000     
   6.8347190265300617E-002   6.8180193389413710E-002   0.0000000000000000     
   7.1308266375375615E-002   7.3746559442729911E-002   0.0000000000000000     
   7.4183106981652272E-002   7.9489140116213275E-002   0.0000000000000000     
   7.6971712084130603E-002   8.5407935409863744E-002   0.0000000000000000     
   6.0134197612020573E-002   6.1889346539709497E-002   0.0000000000000000     
   6.3001761969812581E-002   6.7300272545340281E-002   0.0000000000000000     
   6.5783836758305639E-002   7.2890931241716181E-002   0.0000000000000000     
   6.8480421977499761E-002   7.8661322628837238E-002   0.0000000000000000     
   7.1091517627394935E-002   8.4611446706703425E-002   0.0000000000000000     
   5.5158818321560388E-002   6.1043571601164380E-002   0.0000000000000000     
   5.7843775060140268E-002   6.6477016255423960E-002   0.0000000000000000     
   6.0445384853604830E-002   7.2092228116842488E-002   0.0000000000000000     
   6.2963647701954076E-002   7.7889207185419918E-002   0.0000000000000000     
   6.5398563605188004E-002   8.3867953461156303E-002   0.0000000000000000     
   5.0373740780046757E-002   6.0252717140629290E-002   0.0000000000000000     
   5.2873229536283706E-002   6.5710424519664801E-002   0.0000000000000000     
   5.5292910661273204E-002   7.1350450068108834E-002   0.0000000000000000     
   5.7632784155015229E-002   7.7172793785961369E-002   0.0000000000000000     
   5.9892850017509804E-002   8.3177455673222392E-002   0.0000000000000000     
   4.5778964987479666E-002   5.9516783158104193E-002   0.0000000000000000     
   4.8090125398242894E-002   6.5000497338062777E-002   0.0000000000000000     
   5.0326414181310737E-002   7.0665597095515231E-002   0.0000000000000000     
   5.2487831336683229E-002   7.6512082430461523E-002   0.0000000000000000     
   5.4574376864360334E-002   8.2539953342901679E-002   0.0000000000000000     
   7.6971712084130603E-002   8.5407935409863744E-002   0.0000000000000000     
   7.9666436479029781E-002   9.1496779416709945E-002   0.0000000000000000     
   8.2259634962569009E-002   9.7749506229780486E-002   0.0000000000000000     
   8.4751307534748271E-002  0.10416611584907531        0.0000000000000000     
   8.7141454195567597E-002  0.11074660827459448        0.0000000000000000     
   7.1091517627394935E-002   8.4611446706703425E-002   0.0000000000000000     
   7.3612589199160444E-002   9.0732577253790331E-002   0.0000000000000000     
   7.6039102183965590E-002   9.7015988048573504E-002   0.0000000000000000     
   7.8371056581810358E-002  0.10346167909105297        0.0000000000000000     
   8.0608452392694763E-002  0.11006965038122871        0.0000000000000000     
   6.5398563605188004E-002   8.3867953461156303E-002   0.0000000000000000     
   6.7747922907760508E-002   9.0018068688423727E-002   0.0000000000000000     
   7.0009515954125509E-002   9.6329154611594331E-002   0.0000000000000000     
   7.2183342744283022E-002  0.10280121123066813        0.0000000000000000     
   7.4269403278233032E-002  0.10943423854564510        0.0000000000000000     
   5.9892850017509804E-002   8.3177455673222392E-002   0.0000000000000000     
   6.2072437604829958E-002   8.9353253720610204E-002   0.0000000000000000     
   6.4170876273048766E-002   9.5689005918842981E-002   0.0000000000000000     
   6.6188166022166234E-002  0.10218471226792082        0.0000000000000000     
   6.8124306852182376E-002  0.10884037276784367        0.0000000000000000     
   5.4574376864360334E-002   8.2539953342901679E-002   0.0000000000000000     
   5.6586133290368809E-002   8.8738132350349663E-002   0.0000000000000000     
   5.8523183140735381E-002   9.5095541970319455E-002   0.0000000000000000     
   6.0385526415460050E-002  0.10161218220281103        0.0000000000000000     
   6.2173163114542830E-002  0.10828805304782441        0.0000000000000000     
   8.7141454195567597E-002  0.11074660827459448        0.0000000000000000     
   8.9427387865965657E-002  0.11747280283148945        0.0000000000000000     
   9.1606421466881138E-002  0.12432651884491169        0.0000000000000000     
   9.3678554998314012E-002  0.13130775631486119        0.0000000000000000     
   9.5643788460264278E-002  0.13841651524133797        0.0000000000000000     
   8.0608452392694763E-002  0.11006965038122871        0.0000000000000000     
   8.2753445154342048E-002  0.11682167726911262        0.0000000000000000     
   8.4808190404475459E-002  0.12369953510471664        0.0000000000000000     
   8.6772688143095009E-002  0.13070322388804070        0.0000000000000000     
   8.8646938370200684E-002  0.13783274361908482        0.0000000000000000     
   7.4269403278233032E-002  0.10943423854564510        0.0000000000000000     
   7.6272708253920810E-002  0.11621050548300445        0.0000000000000000     
   7.8198268369291640E-002  0.12311228096922536        0.0000000000000000     
   8.0046083624345538E-002  0.13013956500430782        0.0000000000000000     
   8.1816154019082488E-002  0.13729235758825187        0.0000000000000000     
   6.8124306852182376E-002  0.10884037276784367        0.0000000000000000     
   6.9985177164701914E-002  0.11563928747316490        0.0000000000000000     
   7.1776655361329655E-002  0.12256475643843787        0.0000000000000000     
   7.3498741442065585E-002  0.12961677966366261        0.0000000000000000     
   7.5151435406909675E-002  0.13679535714883906        0.0000000000000000     
   6.2173163114542830E-002  0.10828805304782441        0.0000000000000000     
   6.3890851886685418E-002  0.11510802323959397        0.0000000000000000     
   6.5543351380589518E-002  0.12205696151235416        0.0000000000000000     
   6.7130661596255151E-002  0.12913486786610498        0.0000000000000000     
   6.8652782533682302E-002  0.13634174230084639        0.0000000000000000     
   9.5643788460264278E-002  0.13841651524133797        0.0000000000000000     
   9.7535112016894895E-002  0.14564257918843929        0.0000000000000000     
   9.9385515832368779E-002  0.15297573172026238        0.0000000000000000     
  0.10119499990668590       0.16041597283680734        0.0000000000000000     
  0.10296356423984628       0.16796330253807407        0.0000000000000000     
   8.8646938370200684E-002  0.13783274361908482        0.0000000000000000     
   9.0438537018221632E-002  0.14508264710138538        0.0000000000000000     
   9.2155080019586999E-002  0.15244748713847872        0.0000000000000000     
   9.3796567374296785E-002  0.15992726373036473        0.0000000000000000     
   9.5362999082350991E-002  0.16752197687704357        0.0000000000000000     
   8.1816154019082488E-002  0.13729235758825187        0.0000000000000000     
   8.3500008067731932E-002  0.14456741011553303        0.0000000000000000     
   8.5089174284523325E-002  0.15196147398062690        0.0000000000000000     
   8.6583652669456668E-002  0.15947454918353338        0.0000000000000000     
   8.7983443222531946E-002  0.16710663572425255        0.0000000000000000     
   7.5151435406909675E-002  0.13679535714883906        0.0000000000000000     
   7.6719525165425809E-002  0.14409686823088216        0.0000000000000000     
   7.8187798627177757E-002  0.15151769224670689        0.0000000000000000     
   7.9556255792165548E-002  0.15905782919631317        0.0000000000000000     
   8.0824896660389167E-002  0.16671727907970105        0.0000000000000000     
   6.8652782533682302E-002  0.13634174230084639        0.0000000000000000     
   7.0097088311303263E-002  0.14367102144743285        0.0000000000000000     
   7.1450953047550295E-002  0.15111614193671877        0.0000000000000000     
   7.2714376742423412E-002  0.15867710376870417        0.0000000000000000     
   7.3887359395922600E-002  0.16635390694338903        0.0000000000000000     
   0.0000000000000000        0.0000000000000000        0.0000000000000000     
   2.8800471018656246E-003   1.7448449655597187E-003   0.0000000000000000     
   5.8726114275306418E-003   3.8646685747984110E-003   0.0000000000000000     
   8.9776929769950515E-003   6.3594708277160761E-003   0.0000000000000000     
   1.2195291750258854E-002   9.2292517243127148E-003   0.0000000000000000     
   0.0000000000000000        0.0000000000000000        0.0000000000000000     
   2.6102884929283354E-003   1.5889963271363094E-003   0.0000000000000000     
   5.2896845887710747E-003   3.5567900705501636E-003   0.0000000000000000     
   8.0381882875282164E-003   5.9033812302415611E-003   0.0000000000000000     
   1.0855799589199761E-002   8.6287698062105043E-003   0.0000000000000000     
   0.0000000000000000        0.0000000000000000        0.0000000000000000     
   2.3400850691687515E-003   1.4590532082885623E-003   0.0000000000000000     
   4.7201688020652088E-003   3.2999211156282959E-003   0.0000000000000000     
   7.1402511986893707E-003   5.5226037220192006E-003   0.0000000000000000     
   9.6003322590412395E-003   8.1271010274612775E-003   0.0000000000000000     
   0.0000000000000000        0.0000000000000000        0.0000000000000000     
   2.0694368305868727E-003   1.3550156090164774E-003   0.0000000000000000     
   4.1640640674130433E-003   3.0940617100328085E-003   0.0000000000000000     
   6.2838817104785135E-003   5.2171383030489944E-003   0.0000000000000000     
   8.4288897597832816E-003   7.7242453880650335E-003   0.0000000000000000     
   0.0000000000000000        0.0000000000000000        0.0000000000000000     
   1.7983437771826988E-003   1.2768835293200549E-003   0.0000000000000000     
   3.6213703848145804E-003   2.9392118537637023E-003   0.0000000000000000     
   5.4690798228956465E-003   4.9869849733309417E-003   0.0000000000000000     
   7.3414720914258937E-003   7.4202028880217740E-003   0.0000000000000000     
   1.2195291750258854E-002   9.2292517243127148E-003   0.0000000000000000     
   1.5427691453418515E-002   1.2371872290529887E-002   0.0000000000000000     
   1.8577175792570500E-002   1.5685193552309164E-002   0.0000000000000000     
   2.1643744767714822E-002   1.9169215509650533E-002   0.0000000000000000     
   2.4627398378851462E-002   2.2823938162554010E-002   0.0000000000000000     
   1.0855799589199761E-002   8.6287698062105043E-003   0.0000000000000000     
   1.3689152238261122E-002   1.1650729592987123E-002   0.0000000000000000     
   1.6484879979187711E-002   1.4887034385101550E-002   0.0000000000000000     
   1.9242982811979528E-002   1.8337684182553788E-002   0.0000000000000000     
   2.1963460736636568E-002   2.2002678985343836E-002   0.0000000000000000     
   9.6003322590412395E-003   8.1271010274612775E-003   0.0000000000000000     
   1.2076836765421987E-002   1.1046121378601260E-002   0.0000000000000000     
   1.4546189500132790E-002   1.4212373122085899E-002   0.0000000000000000     
   1.7008390463173650E-002   1.7625856257915185E-002   0.0000000000000000     
   1.9463439654544570E-002   2.1286570786089112E-002   0.0000000000000000     
   8.4288897597832816E-003   7.7242453880650335E-003   0.0000000000000000     
   1.0590745034901107E-002   1.0558047647372308E-002   0.0000000000000000     
   1.2761104355405745E-002   1.3661209763262204E-002   0.0000000000000000     
   1.4939967721297199E-002   1.7033731735734720E-002   0.0000000000000000     
   1.7127335132575465E-002   2.0675613564789849E-002   0.0000000000000000     
   7.3414720914258937E-003   7.4202028880217740E-003   0.0000000000000000     
   9.2308770466984838E-003   1.0186508399300262E-002   0.0000000000000000     
   1.1129624545006576E-002   1.3233544308630468E-002   0.0000000000000000     
   1.3037714586350167E-002   1.6561310616012397E-002   0.0000000000000000     
   1.4955147170729259E-002   2.0169807321446045E-002   0.0000000000000000     
   2.4627398378851462E-002   2.2823938162554010E-002   0.0000000000000000     
   2.7532131763753315E-002   2.6672335044770398E-002   0.0000000000000000     