 <VTKFile type="UnstructuredGrid"  version="0.1"   >
 <UnstructuredGrid>
 <Piece  NumberOfPoints="            25 "  NumberOfCells="           16 ">
 <Points>
 <DataArray  type="Float64" NumberOfComponents="3"  format="ascii" >
   0.0000000000000000        0.0000000000000000        0.0000000000000000     
  0.25000000000000000        0.0000000000000000        0.0000000000000000     
  0.50000000000000000        0.0000000000000000        0.0000000000000000     
  0.75000000000000000        0.0000000000000000        0.0000000000000000     
   1.0000000000000000        0.0000000000000000        0.0000000000000000     
   0.0000000000000000       0.25000000000000000        0.0000000000000000     
  0.25000000000000000       0.25000000000000000        0.0000000000000000     
  0.50000000000000000       0.25000000000000000        0.0000000000000000     
  0.75000000000000000       0.25000000000000000        0.0000000000000000     
   1.0000000000000000       0.25000000000000000        0.0000000000000000     
   0.0000000000000000       0.50000000000000000        0.0000000000000000     
  0.25000000000000000       0.50000000000000000        0.0000000000000000     
  0.50000000000000000       0.50000000000000000        0.0000000000000000     
  0.75000000000000000       0.50000000000000000        0.0000000000000000     
   1.0000000000000000       0.50000000000000000        0.0000000000000000     
   0.0000000000000000       0.75000000000000000        0.0000000000000000     
  0.25000000000000000       0.75000000000000000        0.0000000000000000     
  0.50000000000000000       0.75000000000000000        0.0000000000000000     
  0.75000000000000000       0.75000000000000000        0.0000000000000000     
   1.0000000000000000       0.75000000000000000        0.0000000000000000     
   0.0000000000000000        1.0000000000000000        0.0000000000000000     
  0.25000000000000000        1.0000000000000000        0.0000000000000000     
  0.50000000000000000        1.0000000000000000        0.0000000000000000     
  0.75000000000000000        1.0000000000000000        0.0000000000000000     
   1.0000000000000000        1.0000000000000000        0.0000000000000000     
 </DataArray>
 </Points>
 <Cells>
 <DataArray  type="Int32"  Name="connectivity"  format="ascii">
           0           1           6           5
           1           2           7           6
           2           3           8           7
           3           4           9           8
           5           6          11          10
           6           7          12          11
           7           8          13          12
           8           9          14          13
          10          11          16          15
          11          12          17          16
          12          13          18          17
          13          14          19          18
          15          16          21          20
          16          17          22          21
          17          18          23          22
          18          19          24          23
 </DataArray>
 <DataArray  type="Int32"  Name="offsets"  format="ascii"> 
           4
           8
          12
          16
          20
          24
          28
          32
          36
          40
          44
          48
          52
          56
          60
          64
 </DataArray>
 <DataArray  type="UInt8"  Name="types"  format="ascii">
 9
 9
 9
 9
 9
 9
 9
 9
 9
 9
 9
 9
 9
 9
 9
 9
 </DataArray>
 </Cells> 
 <PointData>
 <DataArray  type="Float64" Name="disp" NumberOfComponents="3" format="ascii">
   0.0000000000000000        0.0000000000000000        0.0000000000000000     
   0.0000000000000000        0.0000000000000000        0.0000000000000000     
   0.0000000000000000        0.0000000000000000        0.0000000000000000     
   0.0000000000000000        0.0000000000000000        0.0000000000000000     
   0.0000000000000000        0.0000000000000000        0.0000000000000000     
   0.0000000000000000        0.0000000000000000        0.0000000000000000     
   0.0000000000000000        0.0000000000000000        0.0000000000000000     
   0.0000000000000000        0.0000000000000000        0.0000000000000000     
   0.0000000000000000        0.0000000000000000        0.0000000000000000     
   0.0000000000000000        0.0000000000000000        0.0000000000000000     
   0.0000000000000000        0.0000000000000000        0.0000000000000000     
   0.0000000000000000        0.0000000000000000        0.0000000000000000     
   0.0000000000000000        0.0000000000000000        0.0000000000000000     
   0.0000000000000000        0.0000000000000000        0.0000000000000000     
   0.0000000000000000        0.0000000000000000        0.0000000000000000     
   0.0000000000000000        0.0000000000000000        0.0000000000000000     
   0.0000000000000000        0.0000000000000000        0.0000000000000000     
   0.0000000000000000        0.0000000000000000        0.0000000000000000     
   0.0000000000000000        0.0000000000000000        0.0000000000000000     
   0.0000000000000000        0.0000000000000000        0.0000000000000000     
   0.0000000000000000        0.0000000000000000        0.0000000000000000     
   0.0000000000000000        0.0000000000000000        0.0000000000000000     
   0.0000000000000000        0.0000000000000000        0.0000000000000000     
   0.0000000000000000        0.0000000000000000        0.0000000000000000     
   0.0000000000000000        0.0000000000000000        0.0000000000000000     
 </DataArray>
 </PointData>
 </Piece>
 <Piece  NumberOfPoints="            25 "  NumberOfCells="           16 ">
 <Points>
 <DataArray  type="Float64" NumberOfComponents="3"  format="ascii" >
  0.50000000000000000        0.0000000000000000        0.0000000000000000     
  0.75000000000000000        0.0000000000000000        0.0000000000000000     
   1.0000000000000000        0.0000000000000000        0.0000000000000000     
   1.2500000000000000        0.0000000000000000        0.0000000000000000     
   1.5000000000000000        0.0000000000000000        0.0000000000000000     
  0.50000000000000000       0.25000000000000000        0.0000000000000000     
  0.75000000000000000       0.25000000000000000        0.0000000000000000     
   1.0000000000000000       0.25000000000000000        0.0000000000000000     
   1.2500000000000000       0.25000000000000000        0.0000000000000000     
   1.5000000000000000       0.25000000000000000        0.0000000000000000     
  0.50000000000000000       0.50000000000000000        0.0000000000000000     
  0.75000000000000000       0.50000000000000000        0.0000000000000000     
   1.0000000000000000       0.50000000000000000        0.0000000000000000     
   1.2500000000000000       0.50000000000000000        0.0000000000000000     
   1.5000000000000000       0.50000000000000000        0.0000000000000000     
  0.50000000000000000       0.75000000000000000        0.0000000000000000     
  0.75000000000000000       0.75000000000000000        0.0000000000000000     
   1.0000000000000000       0.75000000000000000        0.0000000000000000     
   1.2500000000000000       0.75000000000000000        0.0000000000000000     
   1.5000000000000000       0.75000000000000000        0.0000000000000000     
  0.50000000000000000        1.0000000000000000        0.0000000000000000     
  0.75000000000000000        1.0000000000000000        0.0000000000000000     
   1.0000000000000000        1.0000000000000000        0.0000000000000000     
   1.2500000000000000        1.0000000000000000        0.0000000000000000     
   1.5000000000000000        1.0000000000000000        0.0000000000000000     
 </DataArray>
 </Points>
 <Cells>
 <DataArray  type="Int32"  Name="connectivity"  format="ascii">
           0           1           6           5
           1           2           7           6
           2           3           8           7
           3           4           9           8
           5           6          11          10
           6           7          12          11
           7           8          13          12
           8           9          14          13
          10          11          16          15
          11          12          17          16
          12          13          18          17
          13          14          19          18
          15          16          21          20
          16          17          22          21
          17          18          23          22
          18          19          24          23
 </DataArray>
 <DataArray  type="Int32"  Name="offsets"  format="ascii"> 
           4
           8
          12
          16
          20
          24
          28
          32
          36
          40
          44
          48
          52
          56
          60
          64
 </DataArray>
 <DataArray  type="UInt8"  Name="types"  format="ascii">
 9
 9
 9
 9
 9
 9
 9
 9
 9
 9
 9
 9
 9
 9
 9
 9
 </DataArray>
 </Cells> 
 <PointData>
 <DataArray  type="Float64" Name="disp" NumberOfComponents="3" format="ascii">
   0.0000000000000000        0.0000000000000000        0.0000000000000000     
   0.0000000000000000        0.0000000000000000        0.0000000000000000     
   0.0000000000000000        0.0000000000000000        0.0000000000000000     
   0.0000000000000000        0.0000000000000000        0.0000000000000000     
   0.0000000000000000        0.0000000000000000        0.0000000000000000     
   0.0000000000000000        0.0000000000000000        0.0000000000000000     
   0.0000000000000000        0.0000000000000000        0.0000000000000000     
   0.0000000000000000        0.0000000000000000        0.0000000000000000     
   0.0000000000000000        0.0000000000000000        0.0000000000000000     
   0.0000000000000000        0.0000000000000000        0.0000000000000000     
   0.0000000000000000        0.0000000000000000        0.0000000000000000     
   0.0000000000000000        0.0000000000000000        0.0000000000000000     
   0.0000000000000000        0.0000000000000000        0.0000000000000000     
   0.0000000000000000        0.0000000000000000        0.0000000000000000     
   0.0000000000000000        0.0000000000000000        0.0000000000000000     
   0.0000000000000000        0.0000000000000000        0.0000000000000000     
   0.0000000000000000        0.0000000000000000        0.0000000000000000     
   0.0000000000000000        0.0000000000000000        0.0000000000000000     
   0.0000000000000000        0.0000000000000000        0.0000000000000000     
   0.0000000000000000        0.0000000000000000        0.0000000000000000     
   0.0000000000000000        0.0000000000000000        0.0000000000000000     
   0.0000000000000000        0.0000000000000000        0.0000000000000000     
   0.0000000000000000        0.0000000000000000        0.0000000000000000     
   0.0000000000000000        0.0000000000000000        0.0000000000000000     
   0.0000000000000000        0.0000000000000000        0.0000000000000000     
 </DataArray>
 </PointData>
 </Piece>
 </UnstructuredGrid>
 </VTKFile>
