 <VTKFile type="UnstructuredGrid"  version="0.1"   >
 <UnstructuredGrid>
 <Piece  NumberOfPoints="          1600 "  NumberOfCells="         1024 ">
 <Points>
 <DataArray  type="Float64" NumberOfComponents="3"  format="ascii" >
   0.0000000000000000        0.0000000000000000        0.0000000000000000     
   3.1250000000000000E-002   0.0000000000000000        0.0000000000000000     
   6.2500000000000000E-002   0.0000000000000000        0.0000000000000000     
   9.3750000000000000E-002   0.0000000000000000        0.0000000000000000     
  0.12500000000000000        0.0000000000000000        0.0000000000000000     
   0.0000000000000000        3.1250000000000000E-002   0.0000000000000000     
   3.1250000000000000E-002   3.1250000000000000E-002   0.0000000000000000     
   6.2500000000000000E-002   3.1250000000000000E-002   0.0000000000000000     
   9.3750000000000000E-002   3.1250000000000000E-002   0.0000000000000000     
  0.12500000000000000        3.1250000000000000E-002   0.0000000000000000     
   0.0000000000000000        6.2500000000000000E-002   0.0000000000000000     
   3.1250000000000000E-002   6.2500000000000000E-002   0.0000000000000000     
   6.2500000000000000E-002   6.2500000000000000E-002   0.0000000000000000     
   9.3750000000000000E-002   6.2500000000000000E-002   0.0000000000000000     
  0.12500000000000000        6.2500000000000000E-002   0.0000000000000000     
   0.0000000000000000        9.3750000000000000E-002   0.0000000000000000     
   3.1250000000000000E-002   9.3750000000000000E-002   0.0000000000000000     
   6.2500000000000000E-002   9.3750000000000000E-002   0.0000000000000000     
   9.3750000000000000E-002   9.3750000000000000E-002   0.0000000000000000     
  0.12500000000000000        9.3750000000000000E-002   0.0000000000000000     
   0.0000000000000000       0.12500000000000000        0.0000000000000000     
   3.1250000000000000E-002  0.12500000000000000        0.0000000000000000     
   6.2500000000000000E-002  0.12500000000000000        0.0000000000000000     
   9.3750000000000000E-002  0.12500000000000000        0.0000000000000000     
  0.12500000000000000       0.12500000000000000        0.0000000000000000     
  0.12500000000000000        0.0000000000000000        0.0000000000000000     
  0.15625000000000000        0.0000000000000000        0.0000000000000000     
  0.18750000000000000        0.0000000000000000        0.0000000000000000     
  0.21875000000000000        0.0000000000000000        0.0000000000000000     
  0.25000000000000000        0.0000000000000000        0.0000000000000000     
  0.12500000000000000        3.1250000000000000E-002   0.0000000000000000     
  0.15625000000000000        3.1250000000000000E-002   0.0000000000000000     
  0.18750000000000000        3.1250000000000000E-002   0.0000000000000000     
  0.21875000000000000        3.1250000000000000E-002   0.0000000000000000     
  0.25000000000000000        3.1250000000000000E-002   0.0000000000000000     
  0.12500000000000000        6.2500000000000000E-002   0.0000000000000000     
  0.15625000000000000        6.2500000000000000E-002   0.0000000000000000     
  0.18750000000000000        6.2500000000000000E-002   0.0000000000000000     
  0.21875000000000000        6.2500000000000000E-002   0.0000000000000000     
  0.25000000000000000        6.2500000000000000E-002   0.0000000000000000     
  0.12500000000000000        9.3750000000000000E-002   0.0000000000000000     
  0.15625000000000000        9.3750000000000000E-002   0.0000000000000000     
  0.18750000000000000        9.3750000000000000E-002   0.0000000000000000     
  0.21875000000000000        9.3750000000000000E-002   0.0000000000000000     
  0.25000000000000000        9.3750000000000000E-002   0.0000000000000000     
  0.12500000000000000       0.12500000000000000        0.0000000000000000     
  0.15625000000000000       0.12500000000000000        0.0000000000000000     
  0.18750000000000000       0.12500000000000000        0.0000000000000000     
  0.21875000000000000       0.12500000000000000        0.0000000000000000     
  0.25000000000000000       0.12500000000000000        0.0000000000000000     
  0.25000000000000000        0.0000000000000000        0.0000000000000000     
  0.28125000000000000        0.0000000000000000        0.0000000000000000     
  0.31250000000000000        0.0000000000000000        0.0000000000000000     
  0.34375000000000000        0.0000000000000000        0.0000000000000000     
  0.37500000000000000        0.0000000000000000        0.0000000000000000     
  0.25000000000000000        3.1250000000000000E-002   0.0000000000000000     
  0.28125000000000000        3.1250000000000000E-002   0.0000000000000000     
  0.31250000000000000        3.1250000000000000E-002   0.0000000000000000     
  0.34375000000000000        3.1250000000000000E-002   0.0000000000000000     
  0.37500000000000000        3.1250000000000000E-002   0.0000000000000000     
  0.25000000000000000        6.2500000000000000E-002   0.0000000000000000     
  0.28125000000000000        6.2500000000000000E-002   0.0000000000000000     
  0.31250000000000000        6.2500000000000000E-002   0.0000000000000000     
  0.34375000000000000        6.2500000000000000E-002   0.0000000000000000     
  0.37500000000000000        6.2500000000000000E-002   0.0000000000000000     
  0.25000000000000000        9.3750000000000000E-002   0.0000000000000000     
  0.28125000000000000        9.3750000000000000E-002   0.0000000000000000     
  0.31250000000000000        9.3750000000000000E-002   0.0000000000000000     
  0.34375000000000000        9.3750000000000000E-002   0.0000000000000000     
  0.37500000000000000        9.3750000000000000E-002   0.0000000000000000     
  0.25000000000000000       0.12500000000000000        0.0000000000000000     
  0.28125000000000000       0.12500000000000000        0.0000000000000000     
  0.31250000000000000       0.12500000000000000        0.0000000000000000     
  0.34375000000000000       0.12500000000000000        0.0000000000000000     
  0.37500000000000000       0.12500000000000000        0.0000000000000000     
  0.37500000000000000        0.0000000000000000        0.0000000000000000     
  0.40625000000000000        0.0000000000000000        0.0000000000000000     
  0.43750000000000000        0.0000000000000000        0.0000000000000000     
  0.46875000000000000        0.0000000000000000        0.0000000000000000     
  0.50000000000000000        0.0000000000000000        0.0000000000000000     
  0.37500000000000000        3.1250000000000000E-002   0.0000000000000000     
  0.40625000000000000        3.1250000000000000E-002   0.0000000000000000     
  0.43750000000000000        3.1250000000000000E-002   0.0000000000000000     
  0.46875000000000000        3.1250000000000000E-002   0.0000000000000000     
  0.50000000000000000        3.1250000000000000E-002   0.0000000000000000     
  0.37500000000000000        6.2500000000000000E-002   0.0000000000000000     
  0.40625000000000000        6.2500000000000000E-002   0.0000000000000000     
  0.43750000000000000        6.2500000000000000E-002   0.0000000000000000     
  0.46875000000000000        6.2500000000000000E-002   0.0000000000000000     
  0.50000000000000000        6.2500000000000000E-002   0.0000000000000000     
  0.37500000000000000        9.3750000000000000E-002   0.0000000000000000     
  0.40625000000000000        9.3750000000000000E-002   0.0000000000000000     
  0.43750000000000000        9.3750000000000000E-002   0.0000000000000000     
  0.46875000000000000        9.3750000000000000E-002   0.0000000000000000     
  0.50000000000000000        9.3750000000000000E-002   0.0000000000000000     
  0.37500000000000000       0.12500000000000000        0.0000000000000000     
  0.40625000000000000       0.12500000000000000        0.0000000000000000     
  0.43750000000000000       0.12500000000000000        0.0000000000000000     
  0.46875000000000000       0.12500000000000000        0.0000000000000000     
  0.50000000000000000       0.12500000000000000        0.0000000000000000     
  0.50000000000000000        0.0000000000000000        0.0000000000000000     
  0.53125000000000000        0.0000000000000000        0.0000000000000000     
  0.56250000000000000        0.0000000000000000        0.0000000000000000     
  0.59375000000000000        0.0000000000000000        0.0000000000000000     
  0.62500000000000000        0.0000000000000000        0.0000000000000000     
  0.50000000000000000        3.1250000000000000E-002   0.0000000000000000     
  0.53125000000000000        3.1250000000000000E-002   0.0000000000000000     
  0.56250000000000000        3.1250000000000000E-002   0.0000000000000000     
  0.59375000000000000        3.1250000000000000E-002   0.0000000000000000     
  0.62500000000000000        3.1250000000000000E-002   0.0000000000000000     
  0.50000000000000000        6.2500000000000000E-002   0.0000000000000000     
  0.53125000000000000        6.2500000000000000E-002   0.0000000000000000     
  0.56250000000000000        6.2500000000000000E-002   0.0000000000000000     
  0.59375000000000000        6.2500000000000000E-002   0.0000000000000000     
  0.62500000000000000        6.2500000000000000E-002   0.0000000000000000     
  0.50000000000000000        9.3750000000000000E-002   0.0000000000000000     
  0.53125000000000000        9.3750000000000000E-002   0.0000000000000000     
  0.56250000000000000        9.3750000000000000E-002   0.0000000000000000     
  0.59375000000000000        9.3750000000000000E-002   0.0000000000000000     
  0.62500000000000000        9.3750000000000000E-002   0.0000000000000000     
  0.50000000000000000       0.12500000000000000        0.0000000000000000     
  0.53125000000000000       0.12500000000000000        0.0000000000000000     
  0.56250000000000000       0.12500000000000000        0.0000000000000000     
[...]
 <PointData>
 <DataArray  type="Float64" Name="disp" NumberOfComponents="3" format="ascii">
   0.0000000000000000        0.0000000000000000        0.0000000000000000     
   6.0943958037095181E-003   3.7870082417876651E-003   0.0000000000000000     
   1.1664044013442997E-002   7.3177312205135190E-003   0.0000000000000000     
   1.6708944629200431E-002   1.0592168936177562E-002   0.0000000000000000     
   2.1229097650981826E-002   1.3610321388779793E-002   0.0000000000000000     
   0.0000000000000000        0.0000000000000000        0.0000000000000000     
   4.8909517932108713E-003   3.0192429142512260E-003   0.0000000000000000     
   9.5737866969885788E-003   6.0548547640349717E-003   0.0000000000000000     
   1.4048504711333122E-002   9.1068355493512387E-003   0.0000000000000000     
   1.8315105836244502E-002   1.2175185270200022E-002   0.0000000000000000     
   0.0000000000000000        0.0000000000000000        0.0000000000000000     
   3.9541715148859154E-003   2.4226143043848810E-003   0.0000000000000000     
   7.9119225409085732E-003   5.0576538731123494E-003   0.0000000000000000     
   1.1873253078067976E-002   7.9051187061824051E-003   0.0000000000000000     
   1.5838163126364119E-002   1.0965008803595048E-002   0.0000000000000000     
   0.0000000000000000        0.0000000000000000        0.0000000000000000     
   3.2840549687346539E-003   1.9971224121886305E-003   0.0000000000000000     
   6.6784515452029845E-003   4.3261285477456521E-003   0.0000000000000000     
   1.0183189729404990E-002   6.9870184066710642E-003   0.0000000000000000     
   1.3798269521340676E-002   9.9797919889648683E-003   0.0000000000000000     
   0.0000000000000000        0.0000000000000000        0.0000000000000000     
   2.8806021547570851E-003   1.7427672376624736E-003   0.0000000000000000     
   5.8733737098718101E-003   3.8602787879348779E-003   0.0000000000000000     
   8.9783146653441732E-003   6.3525346508172143E-003   0.0000000000000000     
   1.2195425021174175E-002   9.2195348263094806E-003   0.0000000000000000     
   2.1229097650981826E-002   1.3610321388779793E-002   0.0000000000000000     
   2.5436982601959521E-002   1.6600974181008355E-002   0.0000000000000000     
   2.9545079005305858E-002   1.9792912915551394E-002   0.0000000000000000     
   3.3553386861020836E-002   2.3186137592408906E-002   0.0000000000000000     
   3.7461906169104456E-002   2.6780648211580889E-002   0.0000000000000000     
   1.8315105836244502E-002   1.2175185270200022E-002   0.0000000000000000     
   2.2412180318936881E-002   1.5327127688380668E-002   0.0000000000000000     
   2.6378318406624433E-002   1.8629886565692508E-002   0.0000000000000000     
   3.0213520099307146E-002   2.2083461902135552E-002   0.0000000000000000     
   3.3917785396985034E-002   2.5687853697709793E-002   0.0000000000000000     
   1.5838163126364119E-002   1.0965008803595048E-002   0.0000000000000000     
   1.9735588097229202E-002   1.4195513766770605E-002   0.0000000000000000     
   2.3494463402095433E-002   1.7554823197129407E-002   0.0000000000000000     
   2.7114789040962810E-002   2.1042937094671456E-002   0.0000000000000000     
   3.0596565013831324E-002   2.4659855459396741E-002   0.0000000000000000     
   1.3798269521340676E-002   9.9797919889648683E-003   0.0000000000000000     
   1.7407205936836485E-002   1.3206132416178171E-002   0.0000000000000000     
   2.0893513991718866E-002   1.6567722809862087E-002   0.0000000000000000     
   2.4257193685987822E-002   2.0064563170016605E-002   0.0000000000000000     
   2.7498245019643344E-002   2.3696653496641747E-002   0.0000000000000000     
   1.2195425021174175E-002   9.2195348263094806E-003   0.0000000000000000     
   1.5427033837758723E-002   1.2358983636603363E-002   0.0000000000000000     
   1.8575470175494723E-002   1.5668585403890541E-002   0.0000000000000000     
   2.1640734034382179E-002   1.9148340128171022E-002   0.0000000000000000     
   2.4622825414421085E-002   2.2798247809444797E-002   0.0000000000000000     
   3.7461906169104456E-002   2.6780648211580889E-002   0.0000000000000000     
   4.1280796767025001E-002   3.0575439916543962E-002   0.0000000000000000     
   4.5020218492250769E-002   3.4569507850774742E-002   0.0000000000000000     
   4.8680171344781746E-002   3.8762852014273208E-002   0.0000000000000000     
   5.2260655324617947E-002   4.3155472407039382E-002   0.0000000000000000     
   3.3917785396985034E-002   2.5687853697709793E-002   0.0000000000000000     
   3.7516307458443185E-002   2.9473708303652164E-002   0.0000000000000000     
   4.1034279442466716E-002   3.3471672071199589E-002   0.0000000000000000     
   4.4471701349055648E-002   3.7681745000352082E-002   0.0000000000000000     
   4.7828573178209946E-002   4.2103927091109633E-002   0.0000000000000000     
   3.0596565013831324E-002   2.4659855459396741E-002   0.0000000000000000     
   3.3968502025188481E-002   2.8450912256936117E-002   0.0000000000000000     
   3.7259310779521770E-002   3.2461441452920424E-002   0.0000000000000000     
   4.0468991276831200E-002   3.6691443047349649E-002   0.0000000000000000     
   4.3597543517116769E-002   4.1140917040223803E-002   0.0000000000000000     
   2.7498245019643344E-002   2.3696653496641747E-002   0.0000000000000000     
   3.0637380467260899E-002   2.7507051776395834E-002   0.0000000000000000     
   3.3695312503415932E-002   3.1538815995937219E-002   0.0000000000000000     
   3.6672041128108436E-002   3.5791946155265909E-002   0.0000000000000000     
   3.9567566341338421E-002   4.0266442254381890E-002   0.0000000000000000     
   2.4622825414421085E-002   2.2798247809444797E-002   0.0000000000000000     
   2.7522942784660429E-002   2.6642126862031310E-002   0.0000000000000000     
   3.0342284614149177E-002   3.0703795700249999E-002   0.0000000000000000     
   3.3080850902887336E-002   3.4983254324100863E-002   0.0000000000000000     
   3.5738641650874911E-002   3.9480502733583896E-002   0.0000000000000000     
   5.2260655324617947E-002   4.3155472407039382E-002   0.0000000000000000     
   5.5758841600237384E-002   4.7761052325002357E-002   0.0000000000000000     
   5.9171901340118037E-002   5.2593275064091255E-002   0.0000000000000000     
   6.2499834544259919E-002   5.7652140624306049E-002   0.0000000000000000     
   6.5742641212663044E-002   6.2937649005646759E-002   0.0000000000000000     
   4.7828573178209946E-002   4.2103927091109633E-002   0.0000000000000000     
   5.1108052219387391E-002   4.6742183601594323E-002   0.0000000000000000     
   5.4313295762045743E-002   5.1600479789928225E-002   0.0000000000000000     
   5.7444303806185003E-002   5.6678815656111332E-002   0.0000000000000000     
   6.0501076351805162E-002   6.1977191200143673E-002   0.0000000000000000     
   4.3597543517116769E-002   4.1140917040223803E-002   0.0000000000000000     
   4.6650604277937630E-002   4.5807461271641509E-002   0.0000000000000000     
   4.9633810336852935E-002   5.0688673581701399E-002   0.0000000000000000     
   5.2547161693862698E-002   5.5784553970403467E-002   0.0000000000000000     
   5.5390658348966906E-002   6.1095102437747718E-002   0.0000000000000000     
   3.9567566341338421E-002   4.0266442254381890E-002   0.0000000000000000     
   4.2386497775888085E-002   4.4956885335143928E-002   0.0000000000000000     
   4.5133445064539611E-002   4.9857856439410778E-002   0.0000000000000000     
   4.7808408207292985E-002   5.4969355567182444E-002   0.0000000000000000     
   5.0411387204148228E-002   6.0291382718458908E-002   0.0000000000000000     
   3.5738641650874911E-002   3.9480502733583896E-002   0.0000000000000000     
   3.8315732713238772E-002   4.4190455792101575E-002   0.0000000000000000     
   4.0812199945105751E-002   4.9108028363056361E-002   0.0000000000000000     
   4.3228043346475890E-002   5.4233220446448259E-002   0.0000000000000000     
   4.5563262917349162E-002   5.9566032042277256E-002   0.0000000000000000     
   6.5742641212663044E-002   6.2937649005646759E-002   0.0000000000000000     
   6.8903583159370327E-002   6.8416350002408449E-002   0.0000000000000000     
   7.1985922198424757E-002   7.4054793408886196E-002   0.0000000000000000     
   7.4989658329826292E-002   7.9852979225080015E-002   0.0000000000000000     
   7.7914791553574947E-002   8.5810907450989876E-002   0.0000000000000000     
   6.0501076351805162E-002   6.1977191200143673E-002   0.0000000000000000     
   6.3482475809778130E-002   6.7468432878045742E-002   0.0000000000000000     
   6.6387364590975773E-002   7.3125367145838088E-002   0.0000000000000000     
   6.9215742695398097E-002   7.8947994003520691E-002   0.0000000000000000     
   7.1967610123045117E-002   8.4936313451093579E-002   0.0000000000000000     
   5.5390658348966906E-002   6.1095102437747718E-002   0.0000000000000000     
   5.8163360238765185E-002   6.6598593078791096E-002   0.0000000000000000     
   6.0864327299857190E-002   7.2273299988590514E-002   0.0000000000000000     
   6.3493559532242907E-002   7.8119223167145965E-002   0.0000000000000000     
   6.6051056935922350E-002   8.4136362614457505E-002   0.0000000000000000     
   5.0411387204148228E-002   6.0291382718458908E-002   0.0000000000000000     
   5.2946236446331514E-002   6.5806830604644498E-002   0.0000000000000000     
   5.5416810325069003E-002   7.1498591937143460E-002   0.0000000000000000     
   5.7823108840360710E-002   7.7366666715955851E-002   0.0000000000000000     
   6.0165131992206633E-002   8.3411054941081614E-002   0.0000000000000000     
   4.5563262917349162E-002   5.9566032042277256E-002   0.0000000000000000     
   4.7831104432477095E-002   6.5093145455605961E-002   0.0000000000000000     
   5.0044813666611204E-002   7.0801242991496982E-002   0.0000000000000000     
   5.2204390619751496E-002   7.6690324649950306E-002   0.0000000000000000     
   5.4309835291897972E-002   8.2760390430965933E-002   0.0000000000000000     
   7.7914791553574947E-002   8.5810907450989876E-002   0.0000000000000000     
   8.0752011276279484E-002   9.1935281450232817E-002   0.0000000000000000     
   8.3492006904548666E-002   9.8232804586425859E-002   0.0000000000000000     
   8.6134778438382492E-002  0.10470347685956902        0.0000000000000000     
   8.8680325877780963E-002  0.11134729826966228        0.0000000000000000     
   7.1967610123045117E-002   8.4936313451093579E-002   0.0000000000000000     
   7.4633131418277057E-002   9.1093601026682208E-002   0.0000000000000000     
   7.7202471125454183E-002   9.7423132268411983E-002   0.0000000000000000     
   7.9675629244576468E-002  0.10392490717628296        0.0000000000000000     
   8.2052605775643939E-002  0.11059892575029510        0.0000000000000000     
   6.6051056935922350E-002   8.4136362614457505E-002   0.0000000000000000     
   6.8525491424851079E-002   9.0324537564970275E-002   0.0000000000000000     
   7.0905534912984694E-002   9.6683567253129529E-002   0.0000000000000000     
   7.3191187400323182E-002  0.10321345167893525        0.0000000000000000     
   7.5382448886866571E-002  0.10991419084238743        0.0000000000000000     
   6.0165131992206633E-002   8.3411054941081614E-002   0.0000000000000000     
   6.2429091296001549E-002   8.9628091065097060E-002   0.0000000000000000     
   6.4601198267140197E-002   9.6014109540578499E-002   0.0000000000000000     
   6.6681452905622621E-002  0.10256911036752590        0.0000000000000000     
   6.8669855211448819E-002  0.10929309354593927        0.0000000000000000     
   5.4309835291897972E-002   8.2760390430965933E-002   0.0000000000000000     
   5.6343931031728439E-002   8.9004261527062561E-002   0.0000000000000000     
   5.8289461187920708E-002   9.5414759130758892E-002   0.0000000000000000     
   6.0146425760474798E-002  0.10199188324205490        0.0000000000000000     
   6.1914824749390689E-002  0.10873563386095059        0.0000000000000000     
   8.8680325877780963E-002  0.11134729826966228        0.0000000000000000     
   9.1125069616925361E-002  0.11815760356332763        0.0000000000000000     
   9.3465430049997009E-002  0.12512772748718712        0.0000000000000000     
   9.5701407176995865E-002  0.13225767004124075        0.0000000000000000     
   9.7833000997921971E-002  0.13954743122548843        0.0000000000000000     
   8.2052605775643939E-002  0.11059892575029510        0.0000000000000000     
   8.4336205659128111E-002  0.11743491429194045        0.0000000000000000     
   8.6529233835500485E-002  0.12442259910271106        0.0000000000000000     
   8.8631690304761077E-002  0.13156198018260692        0.0000000000000000     
   9.0643575066909884E-002  0.13885305753162797        0.0000000000000000     
   7.5382448886866571E-002  0.10991419084238743        0.0000000000000000     
   7.7483515742876957E-002  0.11677295705306620        0.0000000000000000     
   7.9498584338616590E-002  0.12377692262055154        0.0000000000000000     
   8.1427654674085373E-002  0.13092608754484358        0.0000000000000000     
   8.3270726749283361E-002  0.13822045182594220        0.0000000000000000     
   6.8669855211448819E-002  0.10929309354593927        0.0000000000000000     
   7.0566999868171956E-002  0.11617173184670476        0.0000000000000000     
   7.2373481559345268E-002  0.12319069804070858        0.0000000000000000     
   7.4089300284968740E-002  0.13034999212795073        0.0000000000000000     
   7.5714456045042400E-002  0.13764961410843116        0.0000000000000000     
   6.1914824749390689E-002  0.10873563386095059        0.0000000000000000     
   6.3586658035013038E-002  0.11563123867285625        0.0000000000000000     
   6.5153925497686546E-002  0.12266392536318219        0.0000000000000000     
   6.6616627137411191E-002  0.12983369393192837        0.0000000000000000     
   6.7974762954186974E-002  0.13714054437909481        0.0000000000000000     
   9.7833000997921971E-002  0.13954743122548843        0.0000000000000000     
   9.9789044360142590E-002  0.14689342447169285        0.0000000000000000     
  0.10149837011102505       0.15419206321161646        0.0000000000000000     
  0.10296097825056935       0.16144334744525937        0.0000000000000000     
  0.10417686877877547       0.16864727717262146        0.0000000000000000     
   9.0643575066909884E-002  0.13885305753162797        0.0000000000000000     
   9.2543601791997221E-002  0.14625159395618695        0.0000000000000000     
   9.4310484150073398E-002  0.15371335226269647        0.0000000000000000     
   9.5944222141138402E-002  0.16123833245115657        0.0000000000000000     
   9.7444815765192233E-002  0.16882653452156721        0.0000000000000000     
   8.3270726749283361E-002  0.13822045182594220        0.0000000000000000     
   8.5032791825424295E-002  0.14564875461307200        0.0000000000000000     
   8.6718841163721888E-002  0.15319973505545736        0.0000000000000000     
   8.8328874764176168E-002  0.16087339315309837        0.0000000000000000     
   8.9862892626787122E-002  0.16866972890599502        0.0000000000000000     
   7.5714456045042400E-002  0.13764961410843116        0.0000000000000000     
   7.7256614460423811E-002  0.14508490644234798        0.0000000000000000     
   7.8723441151970552E-002  0.15265121158989914        0.0000000000000000     
   8.0114936119682650E-002  0.16034852955108475        0.0000000000000000     
   8.1431099363560092E-002  0.16817686032590476        0.0000000000000000     
   6.7974762954186974E-002  0.13714054437909481        0.0000000000000000     
   6.9215069696995757E-002  0.14456004944401485        0.0000000000000000     
   7.0324284114819391E-002  0.15206778186602180        0.0000000000000000     
   7.1302406207657862E-002  0.15966374164511574        0.0000000000000000     
   7.2149435975511184E-002  0.16734792878129656        0.0000000000000000     
   0.0000000000000000        0.0000000000000000        0.0000000000000000     
   2.8806021547570851E-003   1.7427672376624736E-003   0.0000000000000000     
   5.8733737098718101E-003   3.8602787879348779E-003   0.0000000000000000     
   8.9783146653441732E-003   6.3525346508172143E-003   0.0000000000000000     
   1.2195425021174175E-002   9.2195348263094806E-003   0.0000000000000000     
   0.0000000000000000        0.0000000000000000        0.0000000000000000     
   2.6103445602449617E-003   1.5870430855942656E-003   0.0000000000000000     
   5.2893791581323860E-003   3.5529345915481145E-003   0.0000000000000000     
   8.0371037936622716E-003   5.8976745178615474E-003   0.0000000000000000     
   1.0853518466834619E-002   8.6212628645345631E-003   0.0000000000000000     
   0.0000000000000000        0.0000000000000000        0.0000000000000000     
   2.3398136724900346E-003   1.4574442607718611E-003   0.0000000000000000     
   4.7191580132020499E-003   3.2969259564534460E-003   0.0000000000000000     
   7.1380330221360432E-003   5.5184450870447545E-003   0.0000000000000000     
   9.5964386992920172E-003   8.1220016525457850E-003   0.0000000000000000     
   0.0000000000000000        0.0000000000000000        0.0000000000000000     
   2.0690094914923049E-003   1.3539707631952599E-003   0.0000000000000000     
   4.1627102750808002E-003   3.0922528826508710E-003   0.0000000000000000     
   6.2811023507654872E-003   5.2148463583668340E-003   0.0000000000000000     
   8.4241857185463655E-003   7.7217511903431481E-003   0.0000000000000000     
   0.0000000000000000        0.0000000000000000        0.0000000000000000     
   1.7979320172517713E-003   1.2766225928644618E-003   0.0000000000000000     
   3.6200359437686398E-003   2.9389153701403908E-003   0.0000000000000000     
   5.4663117795506052E-003   4.9868783318277885E-003   0.0000000000000000     
   7.3367595245976691E-003   7.4205114779266534E-003   0.0000000000000000     
   1.2195425021174175E-002   9.2195348263094806E-003   0.0000000000000000     
   1.5427033837758723E-002   1.2358983636603363E-002   0.0000000000000000     
   1.8575470175494723E-002   1.5668585403890541E-002   0.0000000000000000     
   2.1640734034382179E-002   1.9148340128171022E-002   0.0000000000000000     
   2.4622825414421085E-002   2.2798247809444797E-002   0.0000000000000000     
   1.0853518466834619E-002   8.6212628645345631E-003   0.0000000000000000     
   1.3684758265569273E-002   1.1641256879482519E-002   0.0000000000000000     
   1.6476958277786072E-002   1.4875213810620774E-002   0.0000000000000000     
   1.9230118503485018E-002   1.8323133657949322E-002   0.0000000000000000     
   2.1944238942666106E-002   2.1985016421468169E-002   0.0000000000000000     
   9.5964386992920172E-003   8.1220016525457850E-003   0.0000000000000000     
   1.2070065685841486E-002   1.1040141596251978E-002   0.0000000000000000     
   1.4534604622955966E-002   1.4205410861458769E-002   0.0000000000000000     
   1.6990055510635458E-002   1.7617809448166152E-002   0.0000000000000000     
   1.9436418348879960E-002   2.1277337356374135E-002   0.0000000000000000     
   8.4241857185463655E-003   7.7217511903431481E-003   0.0000000000000000     
   1.0582956098575364E-002   1.0555637786911737E-002   0.0000000000000000     
   1.2748409211004412E-002   1.3659176556404525E-002   0.0000000000000000     
   1.4920545055833507E-002   1.7032367498821508E-002   0.0000000000000000     
   1.7099363633062654E-002   2.0675210614162692E-002   0.0000000000000000     
   7.3367595245976691E-003   7.4205114779266534E-003   0.0000000000000000     
   9.2234295037709104E-003   1.0187745451461803E-002   0.0000000000000000     
   1.1118372041931408E-002   1.3236510895458046E-002   0.0000000000000000     
   1.3021587139079164E-002   1.6566807809915398E-002   0.0000000000000000     
   1.4933074795214179E-002   2.0178636194833843E-002   0.0000000000000000     
   2.4622825414421085E-002   2.2798247809444797E-002   0.0000000000000000     
   2.7522942784660429E-002   2.6642126862031310E-002   0.0000000000000000     