 <VTKFile type="UnstructuredGrid"  version="0.1"   >
 <UnstructuredGrid>
 <Piece  NumberOfPoints="           400 "  NumberOfCells="          256 ">
 <Points>
 <DataArray  type="Float64" NumberOfComponents="3"  format="ascii" >
   0.0000000000000000        0.0000000000000000        0.0000000000000000     
   6.2500000000000000E-002   0.0000000000000000        0.0000000000000000     
  0.12500000000000000        0.0000000000000000        0.0000000000000000     
  0.18750000000000000        0.0000000000000000        0.0000000000000000     
  0.25000000000000000        0.0000000000000000        0.0000000000000000     
   0.0000000000000000        6.2500000000000000E-002   0.0000000000000000     
   6.2500000000000000E-002   6.2500000000000000E-002   0.0000000000000000     
  0.12500000000000000        6.2500000000000000E-002   0.0000000000000000     
  0.18750000000000000        6.2500000000000000E-002   0.0000000000000000     
  0.25000000000000000        6.2500000000000000E-002   0.0000000000000000     
   0.0000000000000000       0.12500000000000000        0.0000000000000000     
   6.2500000000000000E-002  0.12500000000000000        0.0000000000000000     
  0.12500000000000000       0.12500000000000000        0.0000000000000000     
  0.18750000000000000       0.12500000000000000        0.0000000000000000     
  0.25000000000000000       0.12500000000000000        0.0000000000000000     
   0.0000000000000000       0.18750000000000000        0.0000000000000000     
   6.2500000000000000E-002  0.18750000000000000        0.0000000000000000     
  0.12500000000000000       0.18750000000000000        0.0000000000000000     
  0.18750000000000000       0.18750000000000000        0.0000000000000000     
  0.25000000000000000       0.18750000000000000        0.0000000000000000     
   0.0000000000000000       0.25000000000000000        0.0000000000000000     
   6.2500000000000000E-002  0.25000000000000000        0.0000000000000000     
  0.12500000000000000       0.25000000000000000        0.0000000000000000     
  0.18750000000000000       0.25000000000000000        0.0000000000000000     
  0.25000000000000000       0.25000000000000000        0.0000000000000000     
  0.25000000000000000        0.0000000000000000        0.0000000000000000     
  0.31250000000000000        0.0000000000000000        0.0000000000000000     
  0.37500000000000000        0.0000000000000000        0.0000000000000000     
  0.43750000000000000        0.0000000000000000        0.0000000000000000     
  0.50000000000000000        0.0000000000000000        0.0000000000000000     
  0.25000000000000000        6.2500000000000000E-002   0.0000000000000000     
  0.31250000000000000        6.2500000000000000E-002   0.0000000000000000     
  0.37500000000000000        6.2500000000000000E-002   0.0000000000000000     
  0.43750000000000000        6.2500000000000000E-002   0.0000000000000000     
  0.50000000000000000        6.2500000000000000E-002   0.0000000000000000     
  0.25000000000000000       0.12500000000000000        0.0000000000000000     
  0.31250000000000000       0.12500000000000000        0.0000000000000000     
  0.37500000000000000       0.12500000000000000        0.0000000000000000     
  0.43750000000000000       0.12500000000000000        0.0000000000000000     
  0.50000000000000000       0.12500000000000000        0.0000000000000000     
  0.25000000000000000       0.18750000000000000        0.0000000000000000     
  0.31250000000000000       0.18750000000000000        0.0000000000000000     
  0.37500000000000000       0.18750000000000000        0.0000000000000000     
  0.43750000000000000       0.18750000000000000        0.0000000000000000     
  0.50000000000000000       0.18750000000000000        0.0000000000000000     
  0.25000000000000000       0.25000000000000000        0.0000000000000000     
  0.31250000000000000       0.25000000000000000        0.0000000000000000     
  0.37500000000000000       0.25000000000000000        0.0000000000000000     
  0.43750000000000000       0.25000000000000000        0.0000000000000000     
  0.50000000000000000       0.25000000000000000        0.0000000000000000     
  0.50000000000000000        0.0000000000000000        0.0000000000000000     
  0.56250000000000000        0.0000000000000000        0.0000000000000000     
  0.62500000000000000        0.0000000000000000        0.0000000000000000     
  0.68750000000000000        0.0000000000000000        0.0000000000000000     
  0.75000000000000000        0.0000000000000000        0.0000000000000000     
  0.50000000000000000        6.2500000000000000E-002   0.0000000000000000     
  0.56250000000000000        6.2500000000000000E-002   0.0000000000000000     
  0.62500000000000000        6.2500000000000000E-002   0.0000000000000000     
  0.68750000000000000        6.2500000000000000E-002   0.0000000000000000     
  0.75000000000000000        6.2500000000000000E-002   0.0000000000000000     
  0.50000000000000000       0.12500000000000000        0.0000000000000000     
  0.56250000000000000       0.12500000000000000        0.0000000000000000     
  0.62500000000000000       0.12500000000000000        0.0000000000000000     
  0.68750000000000000       0.12500000000000000        0.0000000000000000     
  0.75000000000000000       0.12500000000000000        0.0000000000000000     
  0.50000000000000000       0.18750000000000000        0.0000000000000000     
  0.56250000000000000       0.18750000000000000        0.0000000000000000     
  0.62500000000000000       0.18750000000000000        0.0000000000000000     
  0.68750000000000000       0.18750000000000000        0.0000000000000000     
  0.75000000000000000       0.18750000000000000        0.0000000000000000     
  0.50000000000000000       0.25000000000000000        0.0000000000000000     
  0.56250000000000000       0.25000000000000000        0.0000000000000000     
  0.62500000000000000       0.25000000000000000        0.0000000000000000     
  0.68750000000000000       0.25000000000000000        0.0000000000000000     
  0.75000000000000000       0.25000000000000000        0.0000000000000000     
  0.75000000000000000        0.0000000000000000        0.0000000000000000     
  0.81250000000000000        0.0000000000000000        0.0000000000000000     
  0.87500000000000000        0.0000000000000000        0.0000000000000000     
  0.93750000000000000        0.0000000000000000        0.0000000000000000     
   1.0000000000000000        0.0000000000000000        0.0000000000000000     
  0.75000000000000000        6.2500000000000000E-002   0.0000000000000000     
  0.81250000000000000        6.2500000000000000E-002   0.0000000000000000     
  0.87500000000000000        6.2500000000000000E-002   0.0000000000000000     
  0.93750000000000000        6.2500000000000000E-002   0.0000000000000000     
   1.0000000000000000        6.2500000000000000E-002   0.0000000000000000     
  0.75000000000000000       0.12500000000000000        0.0000000000000000     
  0.81250000000000000       0.12500000000000000        0.0000000000000000     
  0.87500000000000000       0.12500000000000000        0.0000000000000000     
  0.93750000000000000       0.12500000000000000        0.0000000000000000     
   1.0000000000000000       0.12500000000000000        0.0000000000000000     
  0.75000000000000000       0.18750000000000000        0.0000000000000000     
  0.81250000000000000       0.18750000000000000        0.0000000000000000     
  0.87500000000000000       0.18750000000000000        0.0000000000000000     
  0.93750000000000000       0.18750000000000000        0.0000000000000000     
   1.0000000000000000       0.18750000000000000        0.0000000000000000     
  0.75000000000000000       0.25000000000000000        0.0000000000000000     
  0.81250000000000000       0.25000000000000000        0.0000000000000000     
  0.87500000000000000       0.25000000000000000        0.0000000000000000     
  0.93750000000000000       0.25000000000000000        0.0000000000000000     
   1.0000000000000000       0.25000000000000000        0.0000000000000000     
   0.0000000000000000       0.25000000000000000        0.0000000000000000     
   6.2500000000000000E-002  0.25000000000000000        0.0000000000000000     
  0.12500000000000000       0.25000000000000000        0.0000000000000000     
  0.18750000000000000       0.25000000000000000        0.0000000000000000     
  0.25000000000000000       0.25000000000000000        0.0000000000000000     
   0.0000000000000000       0.31250000000000000        0.0000000000000000     
   6.2500000000000000E-002  0.31250000000000000        0.0000000000000000     
  0.12500000000000000       0.31250000000000000        0.0000000000000000     
  0.18750000000000000       0.31250000000000000        0.0000000000000000     
  0.25000000000000000       0.31250000000000000        0.0000000000000000     
   0.0000000000000000       0.37500000000000000        0.0000000000000000     
   6.2500000000000000E-002  0.37500000000000000        0.0000000000000000     
  0.12500000000000000       0.37500000000000000        0.0000000000000000     
  0.18750000000000000       0.37500000000000000        0.0000000000000000     
  0.25000000000000000       0.37500000000000000        0.0000000000000000     
   0.0000000000000000       0.43750000000000000        0.0000000000000000     
   6.2500000000000000E-002  0.43750000000000000        0.0000000000000000     
  0.12500000000000000       0.43750000000000000        0.0000000000000000     
  0.18750000000000000       0.43750000000000000        0.0000000000000000     
  0.25000000000000000       0.43750000000000000        0.0000000000000000     
   0.0000000000000000       0.50000000000000000        0.0000000000000000     
   6.2500000000000000E-002  0.50000000000000000        0.0000000000000000     
  0.12500000000000000       0.50000000000000000        0.0000000000000000     
[...]
 <PointData>
 <DataArray  type="Float64" Name="disp" NumberOfComponents="3" format="ascii">
   0.0000000000000000        0.0000000000000000        0.0000000000000000     
   1.0692003732219554E-002   6.3567833586749955E-003   0.0000000000000000     
   2.0503769213648892E-002   1.2948642102707769E-002   0.0000000000000000     
   2.9435296444288009E-002   1.9775576232098316E-002   0.0000000000000000     
   3.7486585424136909E-002   2.6837585746846644E-002   0.0000000000000000     
   0.0000000000000000        0.0000000000000000        0.0000000000000000     
   8.1754390658817112E-003   5.0227216584595221E-003   0.0000000000000000     
   1.5982792747128202E-002   1.0760788033669949E-002   0.0000000000000000     
   2.3422061043739464E-002   1.7214199125631276E-002   0.0000000000000000     
   3.0493243955715510E-002   2.4382954934343511E-002   0.0000000000000000     
   0.0000000000000000        0.0000000000000000        0.0000000000000000     
   6.1373860081862189E-003   4.0113002358532542E-003   0.0000000000000000     
   1.2245273865721350E-002   9.0817562577609531E-003   0.0000000000000000     
   1.8323663572605391E-002   1.5211368065723098E-002   0.0000000000000000     
   2.4372555128838347E-002   2.2400135659739692E-002   0.0000000000000000     
   0.0000000000000000        0.0000000000000000        0.0000000000000000     
   4.5778445591330786E-003   3.3225190908561888E-003   0.0000000000000000     
   9.2912125694283414E-003   7.9115467749807829E-003   0.0000000000000000     
   1.4140104030885789E-002   1.3767083052373780E-002   0.0000000000000000     
   1.9124518943505420E-002   2.0889127923035183E-002   0.0000000000000000     
   0.0000000000000000        0.0000000000000000        0.0000000000000000     
   3.4968147187222904E-003   2.9563782234683293E-003   0.0000000000000000     
   7.1206088582491745E-003   7.2501595853294368E-003   0.0000000000000000     
   1.0871382418580653E-002   1.2881344085583323E-002   0.0000000000000000     
   1.4749135399716725E-002   1.9849931724229990E-002   0.0000000000000000     
   3.7486585424136909E-002   2.6837585746846644E-002   0.0000000000000000     
   4.4910444882257101E-002   3.4443146113361287E-002   0.0000000000000000     
   5.1959683547710120E-002   4.2900732798050803E-002   0.0000000000000000     
   5.8634301420495943E-002   5.2210345800915200E-002   0.0000000000000000     
   6.4934298500614593E-002   6.2371985121954458E-002   0.0000000000000000     
   3.0493243955715510E-002   2.4382954934343511E-002   0.0000000000000000     
   3.7196605999589231E-002   3.2298279221222144E-002   0.0000000000000000     
   4.3532411691893549E-002   4.0991395747682700E-002   0.0000000000000000     
   4.9500661032628457E-002   5.0462304513725145E-002   0.0000000000000000     
   5.5101354021793947E-002   6.0711005519349520E-002   0.0000000000000000     
   2.4372555128838347E-002   2.2400135659739692E-002   0.0000000000000000     
   3.0239046693023262E-002   3.0491775950425043E-002   0.0000000000000000     
   3.5770236423763209E-002   3.9330005848393489E-002   0.0000000000000000     
   4.0966124321058173E-002   4.8914825353645025E-002   0.0000000000000000     
   4.5826710384908154E-002   5.9246234466179652E-002   0.0000000000000000     
   1.9124518943505420E-002   2.0889127923035183E-002   0.0000000000000000     
   2.4037766962559198E-002   2.9023636300969990E-002   0.0000000000000000     
   2.8673157743319092E-002   3.7916563100183202E-002   0.0000000000000000     
   3.3030691285785091E-002   4.7567908320674826E-002   0.0000000000000000     
   3.7110367589957199E-002   5.7977671962444854E-002   0.0000000000000000     
   1.4749135399716725E-002   1.9849931724229990E-002   0.0000000000000000     
   1.8592766808197027E-002   2.7893860272856976E-002   0.0000000000000000     
   2.2241175650561194E-002   3.6751067503051835E-002   0.0000000000000000     
   2.5694361926809222E-002   4.6421553414814562E-002   0.0000000000000000     
   2.8952325636941119E-002   5.6905318008145141E-002   0.0000000000000000     
   6.4934298500614593E-002   6.2371985121954458E-002   0.0000000000000000     
   7.0855808666562228E-002   7.3319027531260808E-002   0.0000000000000000     
   7.6394965796835052E-002   8.4984849798926468E-002   0.0000000000000000     
   8.1551769891433035E-002   9.7369451924951431E-002   0.0000000000000000     
   8.6326220950356192E-002  0.11047283390933570        0.0000000000000000     
   5.5101354021793947E-002   6.0711005519349520E-002   0.0000000000000000     
   6.0354525599651904E-002   7.1715289784159281E-002   0.0000000000000000     
   6.5280210706464184E-002   8.3452948327757903E-002   0.0000000000000000     
   6.9878409342230816E-002   9.5923981150145388E-002   0.0000000000000000     
   7.4149121506951784E-002  0.10912838825132178        0.0000000000000000     
   4.5826710384908154E-002   5.9246234466179652E-002   0.0000000000000000     
   5.0380110960420020E-002   7.0319755941129172E-002   0.0000000000000000     
   5.4654442392700647E-002   8.2130912533625380E-002   0.0000000000000000     
   5.8649704681750028E-002   9.4679704243668311E-002   0.0000000000000000     
   6.2365897827568170E-002  0.10796613107125795        0.0000000000000000     
   3.7110367589957199E-002   5.7977671962444854E-002   0.0000000000000000     
   4.0932564748866598E-002   6.9132426002170483E-002   0.0000000000000000     
   4.4517660855544428E-002   8.1018742416528927E-002   0.0000000000000000     
   4.7865655909990673E-002   9.3636621205520201E-002   0.0000000000000000     
   5.0976549912205363E-002  0.10698606236914426        0.0000000000000000     
   2.8952325636941119E-002   5.6905318008145141E-002   0.0000000000000000     
   3.2011886964991625E-002   6.8153299967283240E-002   0.0000000000000000     
   3.4869866094995511E-002   8.0116437976468530E-002   0.0000000000000000     
   3.7526263026952757E-002   9.2794732035701016E-002   0.0000000000000000     
   3.9981077760863383E-002  0.10618818214498066        0.0000000000000000     
   8.6326220950356192E-002  0.11047283390933570        0.0000000000000000     
   9.0642269312279811E-002  0.12411889067721460        0.0000000000000000     
   9.4423865315879124E-002  0.13813151715372343        0.0000000000000000     
   9.7671008961154132E-002  0.15251071333886224        0.0000000000000000     
  0.10038370024810488       0.16725647923263093        0.0000000000000000     
   7.4149121506951784E-002  0.10912838825132178        0.0000000000000000     
   7.8075604987153630E-002  0.12289043428238493        0.0000000000000000     
   8.1641117569362931E-002  0.13703438389443279        0.0000000000000000     
   8.4845659253579675E-002  0.15156023708746535        0.0000000000000000     
   8.7689230039803889E-002  0.16646799386148264        0.0000000000000000     
   6.2365897827568170E-002  0.10796613107125795        0.0000000000000000     
   6.5821264463950577E-002  0.12182225936545611        0.0000000000000000     
   6.9034047224692766E-002  0.13608015547532465        0.0000000000000000     
   7.2004246109794751E-002  0.15073981940086348        0.0000000000000000     
   7.4731861119256546E-002  0.16580125114207270        0.0000000000000000     
   5.0976549912205363E-002  0.10698606236914426        0.0000000000000000     
   5.3879247742670645E-002  0.12091436592642812        0.0000000000000000     
   5.6602654281868642E-002  0.13526883189639893        0.0000000000000000     
   5.9146769529799387E-002  0.15004946027905658        0.0000000000000000     
   6.1511593486462859E-002  0.16525625107440112        0.0000000000000000     
   3.9981077760863383E-002  0.10618818214498066        0.0000000000000000     
   4.2249554823313828E-002  0.12016675396530105        0.0000000000000000     
   4.4346938740890546E-002  0.13460041315765570        0.0000000000000000     
   4.6273229513593542E-002  0.14948915972204466        0.0000000000000000     
   4.8028427141422816E-002  0.16483299365846787        0.0000000000000000     
   0.0000000000000000        0.0000000000000000        0.0000000000000000     
   3.4968147187222904E-003   2.9563782234683293E-003   0.0000000000000000     
   7.1206088582491745E-003   7.2501595853294368E-003   0.0000000000000000     
   1.0871382418580653E-002   1.2881344085583323E-002   0.0000000000000000     
   1.4749135399716725E-002   1.9849931724229990E-002   0.0000000000000000     
   0.0000000000000000        0.0000000000000000        0.0000000000000000     
   2.6469332717343631E-003   2.7771600859585596E-003   0.0000000000000000     
   5.3414146156406245E-003   6.8940555476294900E-003   0.0000000000000000     
   8.0834440317187825E-003   1.2350686385012792E-002   0.0000000000000000     
   1.0873021519968839E-002   1.9147052598108467E-002   0.0000000000000000     
   0.0000000000000000        0.0000000000000000        0.0000000000000000     
   1.7808370029498053E-003   2.6491471305957665E-003   0.0000000000000000     
   3.5615817250594624E-003   6.6396955207035152E-003   0.0000000000000000     
   5.3422341663289710E-003   1.1971645170323248E-002   0.0000000000000000     
   7.1227943267583313E-003   1.8644996079454960E-002   0.0000000000000000     
   0.0000000000000000        0.0000000000000000        0.0000000000000000     
   8.9852591236861724E-004   2.5723393573799497E-003   0.0000000000000000     
   1.7811101865056894E-003   6.4870795045515123E-003   0.0000000000000000     
   2.6477528224112166E-003   1.1744220441514687E-002   0.0000000000000000     
   3.4984538200851993E-003   1.8343762168269481E-002   0.0000000000000000     
   0.0000000000000000        0.0000000000000000        0.0000000000000000     
  -9.2007564761464877E-015   2.5467367663111087E-003   0.0000000000000000     
  -2.0693733185361829E-014   6.4362074991734805E-003   0.0000000000000000     
  -3.4478713287211527E-014   1.1668412198587115E-002   0.0000000000000000     
  -5.0555371521043835E-014   1.8243350864552012E-002   0.0000000000000000     
   1.4749135399716725E-002   1.9849931724229990E-002   0.0000000000000000     
   1.8592766808197027E-002   2.7893860272856976E-002   0.0000000000000000     
   2.2241175650561194E-002   3.6751067503051835E-002   0.0000000000000000     
   2.5694361926809222E-002   4.6421553414814562E-002   0.0000000000000000     
   2.8952325636941119E-002   5.6905318008145141E-002   0.0000000000000000     
   1.0873021519968839E-002   1.9147052598108467E-002   0.0000000000000000     
   1.3630573607946924E-002   2.7053340332597355E-002   0.0000000000000000     
   1.6276526823209160E-002   3.5839735734160300E-002   0.0000000000000000     
   1.8810881165755557E-002   4.5506238802797312E-002   0.0000000000000000     
   2.1233636635586101E-002   5.6052849538508379E-002   0.0000000000000000     
   7.1227943267583313E-003   1.8644996079454960E-002   0.0000000000000000     
   8.8777147398190499E-003   2.6452968946702460E-002   0.0000000000000000     
   1.0581447938982630E-002   3.5188784470669539E-002   0.0000000000000000     
   1.2233993924249075E-002   4.4852442651356204E-002   0.0000000000000000     
   1.3835352695618383E-002   5.5443943488762450E-002   0.0000000000000000     
   3.4984538200851993E-003   1.8343762168269481E-002   0.0000000000000000     
   4.3341902038134036E-003   2.6092746115172292E-002   0.0000000000000000     
   5.1559389978815991E-003   3.4798213712579538E-002   0.0000000000000000     
   5.9637002022897845E-003   4.4460164960491232E-002   0.0000000000000000     
   6.7574738170379607E-003   5.5078599858907354E-002   0.0000000000000000     
  -5.0555371521043835E-014   1.8243350864552012E-002   0.0000000000000000     
  -7.0010186883906478E-014   2.5972671838006851E-002   0.0000000000000000     
  -9.3931454411486093E-014   3.4668023459890313E-002   0.0000000000000000     
  -1.2231537261991540E-013   4.4329405730202394E-002   0.0000000000000000     
  -1.5516581075569746E-013   5.4956818648943091E-002   0.0000000000000000     
   2.8952325636941119E-002   5.6905318008145141E-002   0.0000000000000000     
   3.2011886964991625E-002   6.8153299967283240E-002   0.0000000000000000     
   3.4869866094995511E-002   8.0116437976468530E-002   0.0000000000000000     
   3.7526263026952757E-002   9.2794732035701016E-002   0.0000000000000000     
   3.9981077760863383E-002  0.10618818214498066        0.0000000000000000     
   2.1233636635586101E-002   5.6052849538508379E-002   0.0000000000000000     
   2.3518211352151753E-002   6.7387653894783614E-002   0.0000000000000000     
   2.5638023434903463E-002   7.9418737825113134E-002   0.0000000000000000     
   2.7593072883841222E-002   9.2146101329496938E-002   0.0000000000000000     
   2.9383359698965036E-002  0.10556974440793498        0.0000000000000000     
   1.3835352695618383E-002   5.5443943488762450E-002   0.0000000000000000     
   1.5351671653703611E-002   6.6840763842987774E-002   0.0000000000000000     
   1.6749098199117813E-002   7.8920380574131629E-002   0.0000000000000000     
   1.8027632331860999E-002   9.1682793682194050E-002   0.0000000000000000     
   1.9187274051933153E-002  0.10512800316717502        0.0000000000000000     
   6.7574738170379607E-003   5.5078599858907354E-002   0.0000000000000000     
   7.5122678696472002E-003   6.6512629811895707E-002   0.0000000000000000     
   8.2030903876385720E-003   7.8621366223524058E-002   0.0000000000000000     
   8.8299413710120830E-003   9.1404809093792394E-002   0.0000000000000000     
   9.3928208197677273E-003  0.10486295842270074        0.0000000000000000     
  -1.5516581075569746E-013   5.4956818648943091E-002   0.0000000000000000     
  -1.7483193712197753E-014   6.6403251801507426E-002   0.0000000000000000     
   4.6573270413852175E-013   7.8521694773290365E-002   0.0000000000000000     
   1.2944825875278732E-012   9.1312147564291957E-002   0.0000000000000000     
   2.4687639085807511E-012  0.10477461017451220        0.0000000000000000     
   3.9981077760863383E-002  0.10618818214498066        0.0000000000000000     
   4.2249554823313828E-002  0.12016675396530105        0.0000000000000000     
   4.4346938740890546E-002  0.13460041315765570        0.0000000000000000     
   4.6273229513593542E-002  0.14948915972204466        0.0000000000000000     
   4.8028427141422816E-002  0.16483299365846787        0.0000000000000000     
   2.9383359698965036E-002  0.10556974440793498        0.0000000000000000     
   3.1003809383304031E-002  0.11958271664590360        0.0000000000000000     
   3.2449347439887331E-002  0.13407806762887908        0.0000000000000000     
   3.3719973868714941E-002  0.14905579735686134        0.0000000000000000     
   3.4815688669786841E-002  0.16451590582985040        0.0000000000000000     
   1.9187274051933153E-002  0.10512800316717502        0.0000000000000000     
   2.0213635100065144E-002  0.11916554713206463        0.0000000000000000     
   2.1092327216987845E-002  0.13370496367985304        0.0000000000000000     
   2.1823350402701246E-002  0.14874625281054016        0.0000000000000000     
   2.2406704657205356E-002  0.16428941452412613        0.0000000000000000     
   9.3928208197677273E-003  0.10486295842270074        0.0000000000000000     
   9.8790319735971733E-003  0.11891524542378416        0.0000000000000000     
   1.0275878072192095E-002  0.13348110131057767        0.0000000000000000     
   1.0583359115552483E-002  0.14856052608308132        0.0000000000000000     
   1.0801475103678342E-002  0.16415351974129505        0.0000000000000000     
   2.4687639085807511E-012  0.10477461017451220        0.0000000000000000     
   3.9001154736317822E-012  0.11883181152106215        0.0000000000000000     
   5.5000750048134206E-012  0.13340648052105297        0.0000000000000000     
   7.2686411468729506E-012  0.14849861717448468        0.0000000000000000     
   9.2058149298024361E-012  0.16410822148135717        0.0000000000000000     
   0.0000000000000000        0.0000000000000000        0.0000000000000000     
  -9.2007564761464877E-015   2.5467367663111087E-003   0.0000000000000000     
  -2.0693733185361829E-014   6.4362074991734805E-003   0.0000000000000000     
  -3.4478713287211527E-014   1.1668412198587115E-002   0.0000000000000000     
  -5.0555371521043835E-014   1.8243350864552012E-002   0.0000000000000000     
   0.0000000000000000        0.0000000000000000        0.0000000000000000     
  -8.9852591238541554E-004   2.5723393573879216E-003   0.0000000000000000     
  -1.7811101865439860E-003   6.4870795045677181E-003   0.0000000000000000     
  -2.6477528224757110E-003   1.1744220441539388E-002   0.0000000000000000     
  -3.4984538201805904E-003   1.8343762168302930E-002   0.0000000000000000     
   0.0000000000000000        0.0000000000000000        0.0000000000000000     
  -1.7808370029617940E-003   2.6491471306090671E-003   0.0000000000000000     
  -3.5615817250884861E-003   6.6396955207325232E-003   0.0000000000000000     
  -5.3422341663800768E-003   1.1971645170370367E-002   0.0000000000000000     
  -7.1227943268365674E-003   1.8644996079522604E-002   0.0000000000000000     
   0.0000000000000000        0.0000000000000000        0.0000000000000000     
  -2.6469332717383351E-003   2.7771600859745442E-003   0.0000000000000000     
  -5.3414146156541943E-003   6.8940555476678968E-003   0.0000000000000000     
  -8.0834440317475754E-003   1.2350686385080058E-002   0.0000000000000000     
  -1.0873021520018481E-002   1.9147052598211024E-002   0.0000000000000000     
   0.0000000000000000        0.0000000000000000        0.0000000000000000     
  -3.4968147187150402E-003   2.9563782234843529E-003   0.0000000000000000     
  -7.1206088582411097E-003   7.2501595853738362E-003   0.0000000000000000     
  -1.0871382418578207E-002   1.2881344085668449E-002   0.0000000000000000     
  -1.4749135399726335E-002   1.9849931724368192E-002   0.0000000000000000     
  -5.0555371521043835E-014   1.8243350864552012E-002   0.0000000000000000     
  -7.0010186883906478E-014   2.5972671838006851E-002   0.0000000000000000     
  -9.3931454411486093E-014   3.4668023459890313E-002   0.0000000000000000     
  -1.2231537261991540E-013   4.4329405730202394E-002   0.0000000000000000     
  -1.5516581075569746E-013   5.4956818648943091E-002   0.0000000000000000     
  -3.4984538201805904E-003   1.8343762168302930E-002   0.0000000000000000     
  -4.3341902039466659E-003   2.6092746115207854E-002   0.0000000000000000     
  -5.1559389980619791E-003   3.4798213712603658E-002   0.0000000000000000     
  -5.9637002025265283E-003   4.4460164960490350E-002   0.0000000000000000     
  -6.7574738173403186E-003   5.5078599858867913E-002   0.0000000000000000     
  -7.1227943268365674E-003   1.8644996079522604E-002   0.0000000000000000     
  -8.8777147399320341E-003   2.6452968946777015E-002   0.0000000000000000     
  -1.0581447939140566E-002   3.5188784470721393E-002   0.0000000000000000     
  -1.2233993924462158E-002   4.4852442651355753E-002   0.0000000000000000     
  -1.3835352695896813E-002   5.5443943488680057E-002   0.0000000000000000     
  -1.0873021520018481E-002   1.9147052598211024E-002   0.0000000000000000     
  -1.3630573608026116E-002   2.7053340332714334E-002   0.0000000000000000     
  -1.6276526823329689E-002   3.5839735734243525E-002   0.0000000000000000     
  -1.8810881165929202E-002   4.5506238802798589E-002   0.0000000000000000     
  -2.1233636635824654E-002   5.6052849538379544E-002   0.0000000000000000     
  -1.4749135399726335E-002   1.9849931724368192E-002   0.0000000000000000     
  -1.8592766808228911E-002   2.7893860273019804E-002   0.0000000000000000     
  -2.2241175650629354E-002   3.6751067503170039E-002   0.0000000000000000     
  -2.5694361926927665E-002   4.6421553414818892E-002   0.0000000000000000     
  -2.8952325637123837E-002   5.6905318007966353E-002   0.0000000000000000     
  -1.5516581075569746E-013   5.4956818648943091E-002   0.0000000000000000     
  -1.7483193712197753E-014   6.6403251801507426E-002   0.0000000000000000     