 <VTKFile type="UnstructuredGrid"  version="0.1"   >
 <UnstructuredGrid>
 <Piece  NumberOfPoints="          1600 "  NumberOfCells="         1024 ">
 <Points>
 <DataArray  type="Float64" NumberOfComponents="3"  format="ascii" >
   0.0000000000000000        0.0000000000000000        0.0000000000000000     
   3.1250000000000000E-002   0.0000000000000000        0.0000000000000000     
   6.2500000000000000E-002   0.0000000000000000        0.0000000000000000     
   9.3750000000000000E-002   0.0000000000000000        0.0000000000000000     
  0.12500000000000000        0.0000000000000000        0.0000000000000000     
   0.0000000000000000        3.1250000000000000E-002   0.0000000000000000     
   3.1250000000000000E-002   3.1250000000000000E-002   0.0000000000000000     
   6.2500000000000000E-002   3.1250000000000000E-002   0.0000000000000000     
   9.3750000000000000E-002   3.1250000000000000E-002   0.0000000000000000     
  0.12500000000000000        3.1250000000000000E-002   0.0000000000000000     
   0.0000000000000000        6.2500000000000000E-002   0.0000000000000000     
   3.1250000000000000E-002   6.2500000000000000E-002   0.0000000000000000     
   6.2500000000000000E-002   6.2500000000000000E-002   0.0000000000000000     
   9.3750000000000000E-002   6.2500000000000000E-002   0.0000000000000000     
  0.12500000000000000        6.2500000000000000E-002   0.0000000000000000     
   0.0000000000000000        9.3750000000000000E-002   0.0000000000000000     
   3.1250000000000000E-002   9.3750000000000000E-002   0.0000000000000000     
   6.2500000000000000E-002   9.3750000000000000E-002   0.0000000000000000     
   9.3750000000000000E-002   9.3750000000000000E-002   0.0000000000000000     
  0.12500000000000000        9.3750000000000000E-002   0.0000000000000000     
   0.0000000000000000       0.12500000000000000        0.0000000000000000     
   3.1250000000000000E-002  0.12500000000000000        0.0000000000000000     
   6.2500000000000000E-002  0.12500000000000000        0.0000000000000000     
   9.3750000000000000E-002  0.12500000000000000        0.0000000000000000     
  0.12500000000000000       0.12500000000000000        0.0000000000000000     
  0.12500000000000000        0.0000000000000000        0.0000000000000000     
  0.15625000000000000        0.0000000000000000        0.0000000000000000     
  0.18750000000000000        0.0000000000000000        0.0000000000000000     
  0.21875000000000000        0.0000000000000000        0.0000000000000000     
  0.25000000000000000        0.0000000000000000        0.0000000000000000     
  0.12500000000000000        3.1250000000000000E-002   0.0000000000000000     
  0.15625000000000000        3.1250000000000000E-002   0.0000000000000000     
  0.18750000000000000        3.1250000000000000E-002   0.0000000000000000     
  0.21875000000000000        3.1250000000000000E-002   0.0000000000000000     
  0.25000000000000000        3.1250000000000000E-002   0.0000000000000000     
  0.12500000000000000        6.2500000000000000E-002   0.0000000000000000     
  0.15625000000000000        6.2500000000000000E-002   0.0000000000000000     
  0.18750000000000000        6.2500000000000000E-002   0.0000000000000000     
  0.21875000000000000        6.2500000000000000E-002   0.0000000000000000     
  0.25000000000000000        6.2500000000000000E-002   0.0000000000000000     
  0.12500000000000000        9.3750000000000000E-002   0.0000000000000000     
  0.15625000000000000        9.3750000000000000E-002   0.0000000000000000     
  0.18750000000000000        9.3750000000000000E-002   0.0000000000000000     
  0.21875000000000000        9.3750000000000000E-002   0.0000000000000000     
  0.25000000000000000        9.3750000000000000E-002   0.0000000000000000     
  0.12500000000000000       0.12500000000000000        0.0000000000000000     
  0.15625000000000000       0.12500000000000000        0.0000000000000000     
  0.18750000000000000       0.12500000000000000        0.0000000000000000     
  0.21875000000000000       0.12500000000000000        0.0000000000000000     
  0.25000000000000000       0.12500000000000000        0.0000000000000000     
  0.25000000000000000        0.0000000000000000        0.0000000000000000     
  0.28125000000000000        0.0000000000000000        0.0000000000000000     
  0.31250000000000000        0.0000000000000000        0.0000000000000000     
  0.34375000000000000        0.0000000000000000        0.0000000000000000     
  0.37500000000000000        0.0000000000000000        0.0000000000000000     
  0.25000000000000000        3.1250000000000000E-002   0.0000000000000000     
  0.28125000000000000        3.1250000000000000E-002   0.0000000000000000     
  0.31250000000000000        3.1250000000000000E-002   0.0000000000000000     
  0.34375000000000000        3.1250000000000000E-002   0.0000000000000000     
  0.37500000000000000        3.1250000000000000E-002   0.0000000000000000     
  0.25000000000000000        6.2500000000000000E-002   0.0000000000000000     
  0.28125000000000000        6.2500000000000000E-002   0.0000000000000000     
  0.31250000000000000        6.2500000000000000E-002   0.0000000000000000     
  0.34375000000000000        6.2500000000000000E-002   0.0000000000000000     
  0.37500000000000000        6.2500000000000000E-002   0.0000000000000000     
  0.25000000000000000        9.3750000000000000E-002   0.0000000000000000     
  0.28125000000000000        9.3750000000000000E-002   0.0000000000000000     
  0.31250000000000000        9.3750000000000000E-002   0.0000000000000000     
  0.34375000000000000        9.3750000000000000E-002   0.0000000000000000     
  0.37500000000000000        9.3750000000000000E-002   0.0000000000000000     
  0.25000000000000000       0.12500000000000000        0.0000000000000000     
  0.28125000000000000       0.12500000000000000        0.0000000000000000     
  0.31250000000000000       0.12500000000000000        0.0000000000000000     
  0.34375000000000000       0.12500000000000000        0.0000000000000000     
  0.37500000000000000       0.12500000000000000        0.0000000000000000     
  0.37500000000000000        0.0000000000000000        0.0000000000000000     
  0.40625000000000000        0.0000000000000000        0.0000000000000000     
  0.43750000000000000        0.0000000000000000        0.0000000000000000     
  0.46875000000000000        0.0000000000000000        0.0000000000000000     
  0.50000000000000000        0.0000000000000000        0.0000000000000000     
  0.37500000000000000        3.1250000000000000E-002   0.0000000000000000     
  0.40625000000000000        3.1250000000000000E-002   0.0000000000000000     
  0.43750000000000000        3.1250000000000000E-002   0.0000000000000000     
  0.46875000000000000        3.1250000000000000E-002   0.0000000000000000     
  0.50000000000000000        3.1250000000000000E-002   0.0000000000000000     
  0.37500000000000000        6.2500000000000000E-002   0.0000000000000000     
  0.40625000000000000        6.2500000000000000E-002   0.0000000000000000     
  0.43750000000000000        6.2500000000000000E-002   0.0000000000000000     
  0.46875000000000000        6.2500000000000000E-002   0.0000000000000000     
  0.50000000000000000        6.2500000000000000E-002   0.0000000000000000     
  0.37500000000000000        9.3750000000000000E-002   0.0000000000000000     
  0.40625000000000000        9.3750000000000000E-002   0.0000000000000000     
  0.43750000000000000        9.3750000000000000E-002   0.0000000000000000     
  0.46875000000000000        9.3750000000000000E-002   0.0000000000000000     
  0.50000000000000000        9.3750000000000000E-002   0.0000000000000000     
  0.37500000000000000       0.12500000000000000        0.0000000000000000     
  0.40625000000000000       0.12500000000000000        0.0000000000000000     
  0.43750000000000000       0.12500000000000000        0.0000000000000000     
  0.46875000000000000       0.12500000000000000        0.0000000000000000     
  0.50000000000000000       0.12500000000000000        0.0000000000000000     
  0.50000000000000000        0.0000000000000000        0.0000000000000000     
  0.53125000000000000        0.0000000000000000        0.0000000000000000     
  0.56250000000000000        0.0000000000000000        0.0000000000000000     
  0.59375000000000000        0.0000000000000000        0.0000000000000000     
  0.62500000000000000        0.0000000000000000        0.0000000000000000     
  0.50000000000000000        3.1250000000000000E-002   0.0000000000000000     
  0.53125000000000000        3.1250000000000000E-002   0.0000000000000000     
  0.56250000000000000        3.1250000000000000E-002   0.0000000000000000     
  0.59375000000000000        3.1250000000000000E-002   0.0000000000000000     
  0.62500000000000000        3.1250000000000000E-002   0.0000000000000000     
  0.50000000000000000        6.2500000000000000E-002   0.0000000000000000     
  0.53125000000000000        6.2500000000000000E-002   0.0000000000000000     
  0.56250000000000000        6.2500000000000000E-002   0.0000000000000000     
  0.59375000000000000        6.2500000000000000E-002   0.0000000000000000     
  0.62500000000000000        6.2500000000000000E-002   0.0000000000000000     
  0.50000000000000000        9.3750000000000000E-002   0.0000000000000000     
  0.53125000000000000        9.3750000000000000E-002   0.0000000000000000     
  0.56250000000000000        9.3750000000000000E-002   0.0000000000000000     
  0.59375000000000000        9.3750000000000000E-002   0.0000000000000000     
  0.62500000000000000        9.3750000000000000E-002   0.0000000000000000     
  0.50000000000000000       0.12500000000000000        0.0000000000000000     
  0.53125000000000000       0.12500000000000000        0.0000000000000000     
  0.56250000000000000       0.12500000000000000        0.0000000000000000     
[...]
 <PointData>
 <DataArray  type="Float64" Name="disp" NumberOfComponents="3" format="ascii">
   0.0000000000000000        0.0000000000000000        0.0000000000000000     
   6.0959517429985330E-003   3.7903501247942293E-003   0.0000000000000000     
   1.1665987601287750E-002   7.3237646575926556E-003   0.0000000000000000     
   1.6710107574867655E-002   1.0600243598395277E-002   0.0000000000000000     
   2.1228311663738241E-002   1.3619786947202095E-002   0.0000000000000000     
   0.0000000000000000        0.0000000000000000        0.0000000000000000     
   4.8911510986957684E-003   3.0221058978167504E-003   0.0000000000000000     
   9.5736269268051552E-003   6.0605049506423769E-003   0.0000000000000000     
   1.4047427484328159E-002   9.1151971584768794E-003   0.0000000000000000     
   1.8312552771264777E-002   1.2186182521320256E-002   0.0000000000000000     
   0.0000000000000000        0.0000000000000000        0.0000000000000000     
   3.9535708975445482E-003   2.4251074088968401E-003   0.0000000000000000     
   7.9106173076647114E-003   5.0628997976599191E-003   0.0000000000000000     
   1.1871139230360492E-002   7.9133771662892368E-003   0.0000000000000000     
   1.5835136665631890E-002   1.0976539514784792E-002   0.0000000000000000     
   0.0000000000000000        0.0000000000000000        0.0000000000000000     
   3.2832111395448729E-003   1.9993546580344989E-003   0.0000000000000000     
   6.6769587438664244E-003   4.3309491986452831E-003   0.0000000000000000     
   1.0181242812964657E-002   6.9947836218323522E-003   0.0000000000000000     
   1.3796063346839568E-002   9.9908579275957039E-003   0.0000000000000000     
   0.0000000000000000        0.0000000000000000        0.0000000000000000     
   2.8800718246967420E-003   1.7448476452297265E-003   0.0000000000000000     
   5.8726512354102933E-003   3.8646531535984673E-003   0.0000000000000000     
   8.9777382321406529E-003   6.3594165251062229E-003   0.0000000000000000     
   1.2195332814887822E-002   9.2291377597529933E-003   0.0000000000000000     
   2.1228311663738241E-002   1.3619786947202095E-002   0.0000000000000000     
   2.5433435774984255E-002   1.6612869584740855E-002   0.0000000000000000     
   2.9538315815690431E-002   1.9809966391739306E-002   0.0000000000000000     
   3.3542951785856777E-002   2.3211077368197445E-002   0.0000000000000000     
   3.7447343685483275E-002   2.6816202514115275E-002   0.0000000000000000     
   1.8312552771264777E-002   1.2186182521320256E-002   0.0000000000000000     
   2.2407221748731599E-002   1.5341723522742972E-002   0.0000000000000000     
   2.6369653377845189E-002   1.8650082646315486E-002   0.0000000000000000     
   3.0199847658605554E-002   2.2111259892037802E-002   0.0000000000000000     
   3.3897804591012701E-002   2.5725255259909915E-002   0.0000000000000000     
   1.5835136665631890E-002   1.0976539514784792E-002   0.0000000000000000     
   1.9730861970170956E-002   1.4211149722101479E-002   0.0000000000000000     
   2.3486567500669759E-002   1.7575970667194182E-002   0.0000000000000000     
   2.7102253257128287E-002   2.1071002350062904E-002   0.0000000000000000     
   3.0577919239546551E-002   2.4696244770707646E-002   0.0000000000000000     
   1.3796063346839568E-002   9.9908579275957039E-003   0.0000000000000000     
   1.7404356439302337E-002   1.3221148182816373E-002   0.0000000000000000     
   2.0889058184164141E-002   1.6587630454375391E-002   0.0000000000000000     
   2.4250168581424980E-002   2.0090304742272757E-002   0.0000000000000000     
   2.7487687631084848E-002   2.3729171046508471E-002   0.0000000000000000     
   1.2195332814887822E-002   9.2291377597529933E-003   0.0000000000000000     
   1.5427705156125739E-002   1.2371718904887662E-002   0.0000000000000000     
   1.8577125428328338E-002   1.5685062007859119E-002   0.0000000000000000     
   2.1643593631495622E-002   1.9169167068667357E-002   0.0000000000000000     
   2.4627109765627590E-002   2.2824034087312383E-002   0.0000000000000000     
   3.7447343685483275E-002   2.6816202514115275E-002   0.0000000000000000     
   4.1255976699318908E-002   3.0620983628166405E-002   0.0000000000000000     
   4.4973336012112626E-002   3.4621062509024449E-002   0.0000000000000000     
   4.8599421623864436E-002   3.8816439156689392E-002   0.0000000000000000     
   5.2134233534574317E-002   4.3207113571161256E-002   0.0000000000000000     
   3.3897804591012701E-002   2.5725255259909915E-002   0.0000000000000000     
   3.7486635531624075E-002   2.9521145507394812E-002   0.0000000000000000     
   4.0989451836997155E-002   3.3528007391955474E-002   0.0000000000000000     
   4.4406253507131933E-002   3.7745840913591913E-002   0.0000000000000000     
   4.7737040542028417E-002   4.2174646072304103E-002   0.0000000000000000     
   3.0577919239546551E-002   2.4696244770707646E-002   0.0000000000000000     
   3.3942828799478290E-002   2.8496454469328435E-002   0.0000000000000000     
   3.7226245288477219E-002   3.2516387986125300E-002   0.0000000000000000     
   4.0428168706543366E-002   3.6756045321098232E-002   0.0000000000000000     
   4.3548599053676709E-002   4.1215426474247252E-002   0.0000000000000000     
   2.7487687631084848E-002   2.3729171046508471E-002   0.0000000000000000     
   3.0624556502881539E-002   2.7546910513967272E-002   0.0000000000000000     
   3.3683716366552825E-002   3.1586204291533908E-002   0.0000000000000000     
   3.6665167222098720E-002   3.5847052379208384E-002   0.0000000000000000     
   3.9568909069519202E-002   4.0329454776990702E-002   0.0000000000000000     
   2.4627109765627590E-002   2.2824034087312383E-002   0.0000000000000000     
   2.7531818641833839E-002   2.6672513641311325E-002   0.0000000000000000     
   3.0361865071223976E-002   3.0737456308181314E-002   0.0000000000000000     
   3.3117249053797995E-002   3.5018862087922355E-002   0.0000000000000000     
   3.5797970589555902E-002   3.9516730980534445E-002   0.0000000000000000     
   5.2134233534574317E-002   4.3207113571161256E-002   0.0000000000000000     
   5.5574608367313399E-002   4.7797046516109984E-002   0.0000000000000000     
   5.8917382745152770E-002   5.2590198755205569E-002   0.0000000000000000     
   6.2162556668092443E-002   5.7586570288447984E-002   0.0000000000000000     
   6.5310130136132405E-002   6.2786161115837263E-002   0.0000000000000000     
   4.7737040542028417E-002   4.2174646072304103E-002   0.0000000000000000     
   5.0977893397422154E-002   4.6807377389854216E-002   0.0000000000000000     
   5.4124892529048715E-002   5.1636989388004394E-002   0.0000000000000000     
   5.7178037936908080E-002   5.6663482066754624E-002   0.0000000000000000     
   6.0137329621000268E-002   6.1886855426104927E-002   0.0000000000000000     
   4.3548599053676709E-002   4.1215426474247252E-002   0.0000000000000000     
   4.6583885873417219E-002   4.5881526388946138E-002   0.0000000000000000     
   4.9530378709304830E-002   5.0741340008568690E-002   0.0000000000000000     
   5.2388077561339556E-002   5.5794867333114902E-002   0.0000000000000000     
   5.5156982429521391E-002   6.1042108362584800E-002   0.0000000000000000     
   3.9568909069519202E-002   4.0329454776990702E-002   0.0000000000000000     
   4.2392585795298580E-002   4.5019493513385765E-002   0.0000000000000000     
   4.5133841285921128E-002   4.9903250616898473E-002   0.0000000000000000     
   4.7792675541386866E-002   5.4980726087528839E-002   0.0000000000000000     
   5.0369088561695759E-002   6.0251919925276856E-002   0.0000000000000000     
   3.5797970589555902E-002   3.9516730980534445E-002   0.0000000000000000     
   3.8403993163066266E-002   4.4221278763173069E-002   0.0000000000000000     
   4.0935280258897623E-002   4.9122721212993721E-002   0.0000000000000000     
   4.3391831877050008E-002   5.4221058329996408E-002   0.0000000000000000     
   4.5773648017523393E-002   5.9516290114181122E-002   0.0000000000000000     
   6.5310130136132405E-002   6.2786161115837263E-002   0.0000000000000000     
   6.8364090990965062E-002   6.8176617474080742E-002   0.0000000000000000     
   7.1328427074282816E-002   7.3745585599885796E-002   0.0000000000000000     
   7.4203138386085651E-002   7.9493065493252454E-002   0.0000000000000000     
   7.6988224926373583E-002   8.5419057154180689E-002   0.0000000000000000     
   6.0137329621000268E-002   6.1886855426104927E-002   0.0000000000000000     
   6.3006958132618002E-002   6.7299366269957528E-002   0.0000000000000000     
   6.5791114023054043E-002   7.2893271402214688E-002   0.0000000000000000     
   6.8489797292308349E-002   7.8668570822876399E-002   0.0000000000000000     
   7.1103007940380950E-002   8.4625264531942676E-002   0.0000000000000000     
   5.5156982429521391E-002   6.1042108362584800E-002   0.0000000000000000     
   5.7840959714741853E-002   6.6477735687745579E-002   0.0000000000000000     
   6.0443875817892484E-002   7.2096421899364507E-002   0.0000000000000000     
   6.2965730738973283E-002   7.7898166997441579E-002   0.0000000000000000     
   6.5406524477984229E-002   8.3882970981976793E-002   0.0000000000000000     
   5.0369088561695759E-002   6.0251919925276856E-002   0.0000000000000000     
   5.2866095737336603E-002   6.5711725727444895E-002   0.0000000000000000     
   5.5286712458798168E-002   7.1355037091335255E-002   0.0000000000000000     
   5.7630938726080452E-002   7.7181854016947993E-002   0.0000000000000000     
   5.9898774539183443E-002   8.3192176504283066E-002   0.0000000000000000     
   4.5773648017523393E-002   5.9516290114181122E-002   0.0000000000000000     
   4.8082366200402266E-002   6.5001336389055434E-002   0.0000000000000000     
   5.0319623945771087E-002   7.0669116978126945E-002   0.0000000000000000     
   5.2485421253629864E-002   7.6519631881395614E-002   0.0000000000000000     
   5.4579758123978583E-002   8.2552881098861469E-002   0.0000000000000000     
   7.6988224926373583E-002   8.5419057154180689E-002   0.0000000000000000     
   7.9674106015820312E-002   9.1511549463762623E-002   0.0000000000000000     
   8.2251200975099539E-002   9.7758531303090285E-002   0.0000000000000000     
   8.4719509804211252E-002  0.10416000267216373        0.0000000000000000     
   8.7079032503155435E-002  0.11071596357098293        0.0000000000000000     
   7.1103007940380950E-002   8.4625264531942676E-002   0.0000000000000000     
   7.3621757166942789E-002   9.0748800900947862E-002   0.0000000000000000     
   7.6037056171664827E-002   9.7024628301426399E-002   0.0000000000000000     
   7.8348904954547077E-002  0.10345274673337827        0.0000000000000000     
   8.0557303515589512E-002  0.11003315619680346        0.0000000000000000     
   6.5406524477984229E-002   8.3882970981976793E-002   0.0000000000000000     
   6.7758014281768794E-002   9.0034686532591501E-002   0.0000000000000000     
   7.0011957397170435E-002   9.6337166328907098E-002   0.0000000000000000     
   7.2168353824189110E-002  0.10279041037092355        0.0000000000000000     
   7.4227203562824876E-002  0.10939441865864091        0.0000000000000000     
   5.9898774539183443E-002   8.3192176504283066E-002   0.0000000000000000     
   6.2082877360298348E-002   8.9369206358693512E-002   0.0000000000000000     
   6.4175904651616295E-002   9.5696145385532366E-002   0.0000000000000000     
   6.6177856413137379E-002  0.10217299358479964        0.0000000000000000     
   6.8088732644861510E-002  0.10879975095649533        0.0000000000000000     
   5.4579758123978583E-002   8.2552881098861469E-002   0.0000000000000000     
   5.6596346402531403E-002   8.8752360379253895E-002   0.0000000000000000     
   5.8528897935002482E-002   9.5101565471302218E-002   0.0000000000000000     
   6.0377412721391813E-002  0.10160049637500647        0.0000000000000000     
   6.2141890761699403E-002  0.10824915309036665        0.0000000000000000     
   8.7079032503155435E-002  0.11071596357098293        0.0000000000000000     
   8.9346618475914213E-002  0.11742070835115773        0.0000000000000000     
   9.1539117126469699E-002  0.12426853136429802        0.0000000000000000     
   9.3656528454821836E-002  0.13125943261040376        0.0000000000000000     
   9.5698852460970679E-002  0.13839341208947498        0.0000000000000000     
   8.0557303515589512E-002  0.11003315619680346        0.0000000000000000     
   8.2681868888424145E-002  0.11676258734444167        0.0000000000000000     
   8.4742218106682893E-002  0.12363777082903260        0.0000000000000000     
   8.6738351170365782E-002  0.13065870665057625        0.0000000000000000     
   8.8670268079472842E-002  0.13782539480907263        0.0000000000000000     
   7.4227203562824876E-002  0.10939441865864091        0.0000000000000000     
   7.6209143563206461E-002  0.11614772080123296        0.0000000000000000     
   7.8134810775462610E-002  0.12304884640787352        0.0000000000000000     
   8.0004205199593406E-002  0.13009779547856259        0.0000000000000000     
   8.1817326835598767E-002  0.13729456801330020        0.0000000000000000     
   6.8088732644861510E-002  0.10879975095649533        0.0000000000000000     
   6.9928442500261187E-002  0.11557610872153162        0.0000000000000000     
   7.1716895132808919E-002  0.12250175810082077        0.0000000000000000     
   7.3454090542504652E-002  0.12957669909436278        0.0000000000000000     
   7.5140028729348413E-002  0.13680093170215768        0.0000000000000000     
   6.2141890761699403E-002  0.10824915309036665        0.0000000000000000     
   6.3839765699588352E-002  0.11504775110533765        0.0000000000000000     
   6.5488471178721724E-002  0.12199650590787436        0.0000000000000000     
   6.7088007199099561E-002  0.12909541749797682        0.0000000000000000     
   6.8638373760721835E-002  0.13634448587564504        0.0000000000000000     
   9.5698852460970679E-002  0.13839341208947498        0.0000000000000000     
   9.7654972603027218E-002  0.14565009898282436        0.0000000000000000     
   9.9513772339102441E-002  0.15300912247176460        0.0000000000000000     
  0.10127525166919636       0.16047048255629573        0.0000000000000000     
  0.10293941059330897       0.16803417923641770        0.0000000000000000     
   8.8670268079472842E-002  0.13782539480907263        0.0000000000000000     
   9.0514061549536173E-002  0.14511376599892800        0.0000000000000000     
   9.2245824296087936E-002  0.15249975091454868        0.0000000000000000     
   9.3865556319128129E-002  0.15998334955593468        0.0000000000000000     
   9.5373257618656754E-002  0.16756456192308594        0.0000000000000000     
   8.1817326835598767E-002  0.13729456801330020        0.0000000000000000     
   8.3543602962099769E-002  0.14461243233376403        0.0000000000000000     
   8.5152460857717549E-002  0.15202465676163188        0.0000000000000000     
   8.6643900522452064E-002  0.15953124129690371        0.0000000000000000     
   8.8017921956303341E-002  0.16713218593957954        0.0000000000000000     
   7.5140028729348413E-002  0.13680093170215768        0.0000000000000000     
   7.6743596840718006E-002  0.14414609798733244        0.0000000000000000     
   7.8233682023991266E-002  0.15158384001301414        0.0000000000000000     
   7.9610284279168178E-002  0.15911415777920279        0.0000000000000000     
   8.0873403606248742E-002  0.16673705128589844        0.0000000000000000     
   6.8638373760721835E-002  0.13634448587564504        0.0000000000000000     
   7.0114043185390898E-002  0.14371476295963317        0.0000000000000000     
   7.1489487794909115E-002  0.15117730066869550        0.0000000000000000     
   7.2764707589276445E-002  0.15873209900283200        0.0000000000000000     
   7.3939702568492929E-002  0.16637915796204267        0.0000000000000000     
   0.0000000000000000        0.0000000000000000        0.0000000000000000     
   2.8800718246967420E-003   1.7448476452297265E-003   0.0000000000000000     
   5.8726512354102933E-003   3.8646531535984673E-003   0.0000000000000000     
   8.9777382321406529E-003   6.3594165251062229E-003   0.0000000000000000     
   1.2195332814887822E-002   9.2291377597529933E-003   0.0000000000000000     
   0.0000000000000000        0.0000000000000000        0.0000000000000000     
   2.6103170555395760E-003   1.5889334842459197E-003   0.0000000000000000     
   5.2897218379594473E-003   3.5567080065607064E-003   0.0000000000000000     
   8.0382143472596118E-003   5.9033235669443615E-003   0.0000000000000000     
   1.0855794583440074E-002   8.6287801653968810E-003   0.0000000000000000     
   0.0000000000000000        0.0000000000000000        0.0000000000000000     
   2.3401109346127941E-003   1.4589592888464751E-003   0.0000000000000000     
   4.7201976071770159E-003   3.2998101015732331E-003   0.0000000000000000     
   7.1402600176926657E-003   5.5225524381802759E-003   0.0000000000000000     
   9.6002981661597441E-003   8.1271862986675991E-003   0.0000000000000000     
   0.0000000000000000        0.0000000000000000        0.0000000000000000     
   2.0694534619163972E-003   1.3549250590313929E-003   0.0000000000000000     
   4.1640785430630024E-003   3.0939594386360483E-003   0.0000000000000000     
   6.2838752434398164E-003   5.2171031388139654E-003   0.0000000000000000     
   8.4288435630468384E-003   7.7243561595651466E-003   0.0000000000000000     
   0.0000000000000000        0.0000000000000000        0.0000000000000000     
   1.7983446374503845E-003   1.2768307948006730E-003   0.0000000000000000     
   3.6213646456174052E-003   2.9391560177491512E-003   0.0000000000000000     
   5.4690600245010622E-003   4.9869756688454342E-003   0.0000000000000000     
   7.3414307741013545E-003   7.4202897480895235E-003   0.0000000000000000     
   1.2195332814887822E-002   9.2291377597529933E-003   0.0000000000000000     
   1.5427705156125739E-002   1.2371718904887662E-002   0.0000000000000000     
   1.8577125428328338E-002   1.5685062007859119E-002   0.0000000000000000     
   2.1643593631495622E-002   1.9169167068667357E-002   0.0000000000000000     
   2.4627109765627590E-002   2.2824034087312383E-002   0.0000000000000000     
   1.0855794583440074E-002   8.6287801653968810E-003   0.0000000000000000     
   1.3689106808557191E-002   1.1650795470057469E-002   0.0000000000000000     
   1.6484795284667338E-002   1.4887087149065312E-002   0.0000000000000000     
   1.9242860011770502E-002   1.8337655202420422E-002   0.0000000000000000     
   2.1963300989866697E-002   2.2002499630122786E-002   0.0000000000000000     
   9.6002981661597441E-003   8.1271862986675991E-003   0.0000000000000000     
   1.2076760084512738E-002   1.1046311460067916E-002   0.0000000000000000     
   1.4546093804686123E-002   1.4212527699413937E-002   0.0000000000000000     
   1.7008299326679910E-002   1.7625835016705661E-002   0.0000000000000000     
   1.9463376650494094E-002   2.1286233411943078E-002   0.0000000000000000     
   8.4288435630468384E-003   7.7243561595651466E-003   0.0000000000000000     
   1.0590664983992366E-002   1.0558266874919011E-002   0.0000000000000000     
   1.2761020988384700E-002   1.3661383658904989E-002   0.0000000000000000     
   1.4939911576223840E-002   1.7033706511523077E-002   0.0000000000000000     
   1.7127336747509780E-002   2.0675235432773269E-002   0.0000000000000000     
   7.3414307741013545E-003   7.4202897480895235E-003   0.0000000000000000     
   9.2308215069960894E-003   1.0186661714610754E-002   0.0000000000000000     
   1.1129576835763069E-002   1.3233655027538465E-002   0.0000000000000000     
   1.3037696760402295E-002   1.6561269686872659E-002   0.0000000000000000     
   1.4955181280913764E-002   2.0169505692613339E-002   0.0000000000000000     
   2.4627109765627590E-002   2.2824034087312383E-002   0.0000000000000000     
   2.7531818641833839E-002   2.6672513641311325E-002   0.0000000000000000     