 <VTKFile type="UnstructuredGrid"  version="0.1"   >
 <UnstructuredGrid>
 <Piece  NumberOfPoints="          1600 "  NumberOfCells="         1024 ">
 <Points>
 <DataArray  type="Float64" NumberOfComponents="3"  format="ascii" >
   0.0000000000000000        0.0000000000000000        0.0000000000000000     
   3.1250000000000000E-002   0.0000000000000000        0.0000000000000000     
   6.2500000000000000E-002   0.0000000000000000        0.0000000000000000     
   9.3750000000000000E-002   0.0000000000000000        0.0000000000000000     
  0.12500000000000000        0.0000000000000000        0.0000000000000000     
   0.0000000000000000        3.1250000000000000E-002   0.0000000000000000     
   3.1250000000000000E-002   3.1250000000000000E-002   0.0000000000000000     
   6.2500000000000000E-002   3.1250000000000000E-002   0.0000000000000000     
   9.3750000000000000E-002   3.1250000000000000E-002   0.0000000000000000     
  0.12500000000000000        3.1250000000000000E-002   0.0000000000000000     
   0.0000000000000000        6.2500000000000000E-002   0.0000000000000000     
   3.1250000000000000E-002   6.2500000000000000E-002   0.0000000000000000     
   6.2500000000000000E-002   6.2500000000000000E-002   0.0000000000000000     
   9.3750000000000000E-002   6.2500000000000000E-002   0.0000000000000000     
  0.12500000000000000        6.2500000000000000E-002   0.0000000000000000     
   0.0000000000000000        9.3750000000000000E-002   0.0000000000000000     
   3.1250000000000000E-002   9.3750000000000000E-002   0.0000000000000000     
   6.2500000000000000E-002   9.3750000000000000E-002   0.0000000000000000     
   9.3750000000000000E-002   9.3750000000000000E-002   0.0000000000000000     
  0.12500000000000000        9.3750000000000000E-002   0.0000000000000000     
   0.0000000000000000       0.12500000000000000        0.0000000000000000     
   3.1250000000000000E-002  0.12500000000000000        0.0000000000000000     
   6.2500000000000000E-002  0.12500000000000000        0.0000000000000000     
   9.3750000000000000E-002  0.12500000000000000        0.0000000000000000     
  0.12500000000000000       0.12500000000000000        0.0000000000000000     
  0.12500000000000000        0.0000000000000000        0.0000000000000000     
  0.15625000000000000        0.0000000000000000        0.0000000000000000     
  0.18750000000000000        0.0000000000000000        0.0000000000000000     
  0.21875000000000000        0.0000000000000000        0.0000000000000000     
  0.25000000000000000        0.0000000000000000        0.0000000000000000     
  0.12500000000000000        3.1250000000000000E-002   0.0000000000000000     
  0.15625000000000000        3.1250000000000000E-002   0.0000000000000000     
  0.18750000000000000        3.1250000000000000E-002   0.0000000000000000     
  0.21875000000000000        3.1250000000000000E-002   0.0000000000000000     
  0.25000000000000000        3.1250000000000000E-002   0.0000000000000000     
  0.12500000000000000        6.2500000000000000E-002   0.0000000000000000     
  0.15625000000000000        6.2500000000000000E-002   0.0000000000000000     
  0.18750000000000000        6.2500000000000000E-002   0.0000000000000000     
  0.21875000000000000        6.2500000000000000E-002   0.0000000000000000     
  0.25000000000000000        6.2500000000000000E-002   0.0000000000000000     
  0.12500000000000000        9.3750000000000000E-002   0.0000000000000000     
  0.15625000000000000        9.3750000000000000E-002   0.0000000000000000     
  0.18750000000000000        9.3750000000000000E-002   0.0000000000000000     
  0.21875000000000000        9.3750000000000000E-002   0.0000000000000000     
  0.25000000000000000        9.3750000000000000E-002   0.0000000000000000     
  0.12500000000000000       0.12500000000000000        0.0000000000000000     
  0.15625000000000000       0.12500000000000000        0.0000000000000000     
  0.18750000000000000       0.12500000000000000        0.0000000000000000     
  0.21875000000000000       0.12500000000000000        0.0000000000000000     
  0.25000000000000000       0.12500000000000000        0.0000000000000000     
  0.25000000000000000        0.0000000000000000        0.0000000000000000     
  0.28125000000000000        0.0000000000000000        0.0000000000000000     
  0.31250000000000000        0.0000000000000000        0.0000000000000000     
  0.34375000000000000        0.0000000000000000        0.0000000000000000     
  0.37500000000000000        0.0000000000000000        0.0000000000000000     
  0.25000000000000000        3.1250000000000000E-002   0.0000000000000000     
  0.28125000000000000        3.1250000000000000E-002   0.0000000000000000     
  0.31250000000000000        3.1250000000000000E-002   0.0000000000000000     
  0.34375000000000000        3.1250000000000000E-002   0.0000000000000000     
  0.37500000000000000        3.1250000000000000E-002   0.0000000000000000     
  0.25000000000000000        6.2500000000000000E-002   0.0000000000000000     
  0.28125000000000000        6.2500000000000000E-002   0.0000000000000000     
  0.31250000000000000        6.2500000000000000E-002   0.0000000000000000     
  0.34375000000000000        6.2500000000000000E-002   0.0000000000000000     
  0.37500000000000000        6.2500000000000000E-002   0.0000000000000000     
  0.25000000000000000        9.3750000000000000E-002   0.0000000000000000     
  0.28125000000000000        9.3750000000000000E-002   0.0000000000000000     
  0.31250000000000000        9.3750000000000000E-002   0.0000000000000000     
  0.34375000000000000        9.3750000000000000E-002   0.0000000000000000     
  0.37500000000000000        9.3750000000000000E-002   0.0000000000000000     
  0.25000000000000000       0.12500000000000000        0.0000000000000000     
  0.28125000000000000       0.12500000000000000        0.0000000000000000     
  0.31250000000000000       0.12500000000000000        0.0000000000000000     
  0.34375000000000000       0.12500000000000000        0.0000000000000000     
  0.37500000000000000       0.12500000000000000        0.0000000000000000     
  0.37500000000000000        0.0000000000000000        0.0000000000000000     
  0.40625000000000000        0.0000000000000000        0.0000000000000000     
  0.43750000000000000        0.0000000000000000        0.0000000000000000     
  0.46875000000000000        0.0000000000000000        0.0000000000000000     
  0.50000000000000000        0.0000000000000000        0.0000000000000000     
  0.37500000000000000        3.1250000000000000E-002   0.0000000000000000     
  0.40625000000000000        3.1250000000000000E-002   0.0000000000000000     
  0.43750000000000000        3.1250000000000000E-002   0.0000000000000000     
  0.46875000000000000        3.1250000000000000E-002   0.0000000000000000     
  0.50000000000000000        3.1250000000000000E-002   0.0000000000000000     
  0.37500000000000000        6.2500000000000000E-002   0.0000000000000000     
  0.40625000000000000        6.2500000000000000E-002   0.0000000000000000     
  0.43750000000000000        6.2500000000000000E-002   0.0000000000000000     
  0.46875000000000000        6.2500000000000000E-002   0.0000000000000000     
  0.50000000000000000        6.2500000000000000E-002   0.0000000000000000     
  0.37500000000000000        9.3750000000000000E-002   0.0000000000000000     
  0.40625000000000000        9.3750000000000000E-002   0.0000000000000000     
  0.43750000000000000        9.3750000000000000E-002   0.0000000000000000     
  0.46875000000000000        9.3750000000000000E-002   0.0000000000000000     
  0.50000000000000000        9.3750000000000000E-002   0.0000000000000000     
  0.37500000000000000       0.12500000000000000        0.0000000000000000     
  0.40625000000000000       0.12500000000000000        0.0000000000000000     
  0.43750000000000000       0.12500000000000000        0.0000000000000000     
  0.46875000000000000       0.12500000000000000        0.0000000000000000     
  0.50000000000000000       0.12500000000000000        0.0000000000000000     
  0.50000000000000000        0.0000000000000000        0.0000000000000000     
  0.53125000000000000        0.0000000000000000        0.0000000000000000     
  0.56250000000000000        0.0000000000000000        0.0000000000000000     
  0.59375000000000000        0.0000000000000000        0.0000000000000000     
  0.62500000000000000        0.0000000000000000        0.0000000000000000     
  0.50000000000000000        3.1250000000000000E-002   0.0000000000000000     
  0.53125000000000000        3.1250000000000000E-002   0.0000000000000000     
  0.56250000000000000        3.1250000000000000E-002   0.0000000000000000     
  0.59375000000000000        3.1250000000000000E-002   0.0000000000000000     
  0.62500000000000000        3.1250000000000000E-002   0.0000000000000000     
  0.50000000000000000        6.2500000000000000E-002   0.0000000000000000     
  0.53125000000000000        6.2500000000000000E-002   0.0000000000000000     
  0.56250000000000000        6.2500000000000000E-002   0.0000000000000000     
  0.59375000000000000        6.2500000000000000E-002   0.0000000000000000     
  0.62500000000000000        6.2500000000000000E-002   0.0000000000000000     
  0.50000000000000000        9.3750000000000000E-002   0.0000000000000000     
  0.53125000000000000        9.3750000000000000E-002   0.0000000000000000     
  0.56250000000000000        9.3750000000000000E-002   0.0000000000000000     
  0.59375000000000000        9.3750000000000000E-002   0.0000000000000000     
  0.62500000000000000        9.3750000000000000E-002   0.0000000000000000     
  0.50000000000000000       0.12500000000000000        0.0000000000000000     
  0.53125000000000000       0.12500000000000000        0.0000000000000000     
  0.56250000000000000       0.12500000000000000        0.0000000000000000     
[...]
 <PointData>
 <DataArray  type="Float64" Name="disp" NumberOfComponents="3" format="ascii">
   0.0000000000000000        0.0000000000000000        0.0000000000000000     
  -7.1947168333429264E-004  -1.2463529788709251E-003   0.0000000000000000     
  -9.9545231847483957E-004  -2.6343573315044883E-003   0.0000000000000000     
  -8.2794190542164066E-004  -4.1640130579006906E-003   0.0000000000000000     
  -2.1694044417469615E-004  -5.8353201580595305E-003   0.0000000000000000     
   0.0000000000000000        0.0000000000000000        0.0000000000000000     
  -1.0286249373665557E-004  -1.2293035538980496E-003   0.0000000000000000     
   3.2444958771448481E-005  -2.6541643436975952E-003   0.0000000000000000     
   4.0592235752431221E-004  -4.2745823693986365E-003   0.0000000000000000     
   1.0175697025219352E-003  -6.0905576310011731E-003   0.0000000000000000     
   0.0000000000000000        0.0000000000000000        0.0000000000000000     
   3.3075480096574620E-004  -1.2814268077723941E-003   0.0000000000000000     
   7.6595791410760433E-004  -2.7683873815421913E-003   0.0000000000000000     
   1.3056093394255746E-003  -4.4608817213093906E-003   0.0000000000000000     
   1.9497090769196573E-003  -6.3589098270739912E-003   0.0000000000000000     
   0.0000000000000000        0.0000000000000000        0.0000000000000000     
   5.8138020077291256E-004  -1.4027227404939586E-003   0.0000000000000000     
   1.2050865475336280E-003  -2.9770264450382760E-003   0.0000000000000000     
   1.8711190402821468E-003  -4.7229111136329509E-003   0.0000000000000000     
   2.5794776790184688E-003  -6.6403767462779855E-003   0.0000000000000000     
   0.0000000000000000        0.0000000000000000        0.0000000000000000     
   6.4901370568484329E-004  -1.5931913520627426E-003   0.0000000000000000     
   1.3498308590495195E-003  -3.2800815341858494E-003   0.0000000000000000     
   2.1024514600940288E-003  -5.0606705463693202E-003   0.0000000000000000     
   2.9068755088183704E-003  -6.9349583886131536E-003   0.0000000000000000     
  -2.1694044417469615E-004  -5.8353201580595305E-003   0.0000000000000000     
   6.6674284909982594E-004  -7.5201409999820449E-003   0.0000000000000000     
   1.6522987582357576E-003  -9.0903379516692716E-003   0.0000000000000000     
   2.7397272832330988E-003  -1.0545911013121207E-002   0.0000000000000000     
   3.9290284240918495E-003  -1.1886860184337857E-002   0.0000000000000000     
   1.0175697025219352E-003  -6.0905576310011731E-003   0.0000000000000000     
   1.8357816703072705E-003  -7.9077562599295242E-003   0.0000000000000000     
   2.8289529374232701E-003  -9.5318443876080093E-003   0.0000000000000000     
   3.9970835038699339E-003  -1.0962822014036628E-002   0.0000000000000000     
   5.3401733696472626E-003  -1.2200689139215378E-002   0.0000000000000000     
   1.9497090769196573E-003  -6.3589098270739912E-003   0.0000000000000000     
   2.7480358002628553E-003  -8.2534097967526063E-003   0.0000000000000000     
   3.7503681831281724E-003  -9.9353197282618481E-003   0.0000000000000000     
   4.9567062255156096E-003  -1.1404639621601714E-002   0.0000000000000000     
   6.3670499274251658E-003  -1.2661369476772207E-002   0.0000000000000000     
   2.5794776790184688E-003  -6.6403767462779855E-003   0.0000000000000000     
   3.4035052389665790E-003  -8.5571016104512912E-003   0.0000000000000000     
   4.4165444953504661E-003  -1.0300763973630788E-002   0.0000000000000000     
   5.6185954481701265E-003  -1.1871363835816471E-002   0.0000000000000000     
   7.0096580974255617E-003  -1.3268901197008345E-002   0.0000000000000000     
   2.9068755088183704E-003  -6.9349583886131536E-003   0.0000000000000000     
   3.8021899864184440E-003  -8.8188317010255805E-003   0.0000000000000000     
   4.8274818740901473E-003  -1.0628177123714827E-002   0.0000000000000000     
   5.9827511718334838E-003  -1.2362994656680898E-002   0.0000000000000000     
   7.2679978796484496E-003  -1.4023284299923788E-002   0.0000000000000000     
   3.9290284240918495E-003  -1.1886860184337857E-002   0.0000000000000000     
   5.2044711406109608E-003  -1.3265689936261192E-002   0.0000000000000000     
   6.5503243925893843E-003  -1.4834904739833203E-002   0.0000000000000000     
   7.9665881800271218E-003  -1.6594504595053877E-002   0.0000000000000000     
   9.4532625029241715E-003  -1.8544489501923223E-002   0.0000000000000000     
   5.3401733696472626E-003  -1.2200689139215378E-002   0.0000000000000000     
   6.7820975334008399E-003  -1.3493673650752836E-002   0.0000000000000000     
   8.2467309937762530E-003  -1.5090003436257578E-002   0.0000000000000000     
   9.7340737507734983E-003  -1.6989678495729601E-002   0.0000000000000000     
   1.1244125804392581E-002  -1.9192698829168905E-002   0.0000000000000000     
   6.3670499274251658E-003  -1.2661369476772207E-002   0.0000000000000000     
   7.8922304424523144E-003  -1.3958108673113791E-002   0.0000000000000000     
   9.4430789241925234E-003  -1.5547456589966924E-002   0.0000000000000000     
   1.1019595372645795E-002  -1.7429413227331610E-002   0.0000000000000000     
   1.2621779787812129E-002  -1.9603978585207849E-002   0.0000000000000000     
   7.0096580974255617E-003  -1.3268901197008345E-002   0.0000000000000000     
   8.5348698677653826E-003  -1.4658995003344048E-002   0.0000000000000000     
   1.0139368183838197E-002  -1.6207264200961236E-002   0.0000000000000000     
   1.1823153045644005E-002  -1.7913708789859904E-002   0.0000000000000000     
   1.3586224453182813E-002  -1.9778328770040050E-002   0.0000000000000000     
   7.2679978796484496E-003  -1.4023284299923788E-002   0.0000000000000000     
   8.7100158093400461E-003  -1.5596332641443620E-002   0.0000000000000000     
   1.0335598772713277E-002  -1.7069426269240517E-002   0.0000000000000000     
   1.2144746769768138E-002  -1.8442565183314483E-002   0.0000000000000000     
   1.4137459800504633E-002  -1.9715749383665507E-002   0.0000000000000000     
   9.4532625029241715E-003  -1.8544489501923223E-002   0.0000000000000000     
   1.1410613197746174E-002  -2.0480200265426799E-002   0.0000000000000000     
   1.4238906100958775E-002  -2.2196977690550172E-002   0.0000000000000000     
   1.7938141212561976E-002  -2.3694821777293346E-002   0.0000000000000000     
   2.2508318532555770E-002  -2.4973732525656316E-002   0.0000000000000000     
   1.1244125804392581E-002  -1.9192698829168905E-002   0.0000000000000000     
   1.2972462375849227E-002  -2.1336858972347699E-002   0.0000000000000000     
   1.5114658686359174E-002  -2.3059953461038195E-002   0.0000000000000000     
   1.7670714735922414E-002  -2.4361982295240388E-002   0.0000000000000000     
   2.0640630524538951E-002  -2.5242945474954280E-002   0.0000000000000000     
   1.2621779787812129E-002  -1.9603978585207849E-002   0.0000000000000000     
   1.4253819660917308E-002  -2.1678926845264714E-002   0.0000000000000000     
   1.5919902483187112E-002  -2.3262032189171264E-002   0.0000000000000000     
   1.7620028254621539E-002  -2.4353294616927500E-002   0.0000000000000000     
   1.9354196975220596E-002  -2.4952714128533435E-002   0.0000000000000000     
   1.3586224453182813E-002  -1.9778328770040050E-002   0.0000000000000000     
   1.5254685052950405E-002  -2.1506403884177822E-002   0.0000000000000000     
   1.6654637491442584E-002  -2.2803213874949366E-002   0.0000000000000000     
   1.7786081768659350E-002  -2.3668758742354683E-002   0.0000000000000000     
   1.8649017884600702E-002  -2.4103038486393776E-002   0.0000000000000000     
   1.4137459800504633E-002  -1.9715749383665507E-002   0.0000000000000000     
   1.5975058551948529E-002  -2.0819290089087041E-002   0.0000000000000000     
   1.7318863711125603E-002  -2.1683498518372521E-002   0.0000000000000000     
   1.8168875278035849E-002  -2.2308374671521941E-002   0.0000000000000000     
   1.8525093252679273E-002  -2.2693918548535308E-002   0.0000000000000000     
   2.2508318532555770E-002  -2.4973732525656316E-002   0.0000000000000000     
   2.7243374222377294E-002  -2.4418092815790292E-002   0.0000000000000000     
   3.1437244443463679E-002  -2.0412285527846494E-002   0.0000000000000000     
   3.5089929195814912E-002  -1.2956310661824910E-002   0.0000000000000000     
   3.8201428479431018E-002  -2.0501682177255526E-003   0.0000000000000000     
   2.0640630524538951E-002  -2.5242945474954280E-002   0.0000000000000000     
   2.3764441712038481E-002  -2.4374633758274453E-002   0.0000000000000000     
   2.6782183958250695E-002  -2.0428837903295496E-002   0.0000000000000000     
   2.9693857263175590E-002  -1.3405557910017404E-002   0.0000000000000000     
   3.2499461626813164E-002  -3.3047937784401824E-003   0.0000000000000000     
   1.9354196975220596E-002  -2.4952714128533435E-002   0.0000000000000000     
   2.1224733280683954E-002  -2.3908917598504182E-002   0.0000000000000000     
   2.3333961806711295E-002  -2.0070531901354882E-002   0.0000000000000000     
   2.5681882553302612E-002  -1.3437557037085535E-002   0.0000000000000000     
   2.8268495520457911E-002  -4.0099930056961379E-003   0.0000000000000000     
   1.8649017884600702E-002  -2.4103038486393776E-002   0.0000000000000000     
   1.9624248928313721E-002  -2.3020944336479481E-002   0.0000000000000000     
   2.1092577988845486E-002  -1.9337367522024664E-002   0.0000000000000000     
   2.3054005066195999E-002  -1.3052308043029306E-002   0.0000000000000000     
   2.5508530160365257E-002  -4.1657658994934191E-003   0.0000000000000000     
   1.8525093252679273E-002  -2.2693918548535308E-002   0.0000000000000000     
   1.8962988654927772E-002  -2.1710713972200358E-002   0.0000000000000000     
   2.0058032504653260E-002  -1.8229344765304828E-002   0.0000000000000000     
   2.1810224801855734E-002  -1.2249810927848716E-002   0.0000000000000000     
   2.4219565546535197E-002  -3.7721124598320286E-003   0.0000000000000000     
   3.8201428479431018E-002  -2.0501682177255526E-003   0.0000000000000000     
   4.0028543355432378E-002   8.8045080549470772E-003   0.0000000000000000     
   3.9828074884939411E-002   1.6106084406688464E-002   0.0000000000000000     
   3.7600023067952106E-002   1.9854560837498619E-002   0.0000000000000000     
   3.3344387904470474E-002   2.0049937347377533E-002   0.0000000000000000     
   3.2499461626813164E-002  -3.3047937784401824E-003   0.0000000000000000     
   3.4491005808999442E-002   6.9685375007985289E-003   0.0000000000000000     
   3.4960498569570432E-002   1.4509518937061084E-002   0.0000000000000000     
   3.3907939908526148E-002   1.9318150530347480E-002   0.0000000000000000     
   3.1333329825866570E-002   2.1394432280657728E-002   0.0000000000000000     
   2.8268495520457911E-002  -4.0099930056961379E-003   0.0000000000000000     
   3.0378547589179388E-002   5.6966051000461350E-003   0.0000000000000000     
   3.1296785640469248E-002   1.3166682187374107E-002   0.0000000000000000     
   3.1023209674327482E-002   1.8400238256287775E-002   0.0000000000000000     
   2.9557819690754106E-002   2.1397273306787139E-002   0.0000000000000000     
   2.5508530160365257E-002  -4.1657658994934191E-003   0.0000000000000000     
   2.7691168695972219E-002   4.9887108526898956E-003   0.0000000000000000     
   2.8836936097635841E-002   1.2077574157627531E-002   0.0000000000000000     
   2.8945832365356128E-002   1.7100824015319493E-002   0.0000000000000000     
   2.8017857499133068E-002   2.0058460425765777E-002   0.0000000000000000     
   2.4219565546535197E-002  -3.7721124598320286E-003   0.0000000000000000     
   2.6428869129377933E-002   4.8448547587298090E-003   0.0000000000000000     
   2.7580949941070226E-002   1.1242194847821366E-002   0.0000000000000000     
   2.7675807981612070E-002   1.5419907807442641E-002   0.0000000000000000     
   2.6713443251003471E-002   1.7377993637593632E-002   0.0000000000000000     
   3.3344387904470474E-002   2.0049937347377533E-002   0.0000000000000000     
   2.8203453779572570E-002   1.9253364309354575E-002   0.0000000000000000     
   2.3319505078336446E-002   2.0025992096459111E-002   0.0000000000000000     
   1.8692541800762106E-002   2.2367820708691144E-002   0.0000000000000000     
   1.4322563946849545E-002   2.6278850146050671E-002   0.0000000000000000     
   3.1333329825866570E-002   2.1394432280657728E-002   0.0000000000000000     
   2.7634233270277607E-002   2.2290457645877827E-002   0.0000000000000000     
   2.3208215190445133E-002   2.3558320083893781E-002   0.0000000000000000     
   1.8055275586369161E-002   2.5198019594705599E-002   0.0000000000000000     
   1.2175414458049684E-002   2.7209556178313277E-002   0.0000000000000000     
   2.9557819690754106E-002   2.1397273306787139E-002   0.0000000000000000     
   2.7031905793261216E-002   2.3136868948738478E-002   0.0000000000000000     
   2.3576758085360940E-002   2.4598106792008044E-002   0.0000000000000000     
   1.9192376567053273E-002   2.5780986836595850E-002   0.0000000000000000     
   1.3878761238338212E-002   2.6685509082501883E-002   0.0000000000000000     
   2.8017857499133068E-002   2.0058460425765777E-002   0.0000000000000000     
   2.6396471348523402E-002   2.1792598217936533E-002   0.0000000000000000     
   2.4425133763083858E-002   2.3145352220801906E-002   0.0000000000000000     
   2.2103844742814432E-002   2.4116722434361894E-002   0.0000000000000000     
   1.9432604287715129E-002   2.4706708858616498E-002   0.0000000000000000     
   2.6713443251003471E-002   1.7377993637593632E-002   0.0000000000000000     
   2.5727929936064171E-002   1.8257645453471989E-002   0.0000000000000000     
   2.5753342223613897E-002   1.9200056370275352E-002   0.0000000000000000     
   2.6789680113652653E-002   2.0205226388003726E-002   0.0000000000000000     
   2.8836943606180439E-002   2.1273155506657107E-002   0.0000000000000000     
   1.4322563946849545E-002   2.6278850146050671E-002   0.0000000000000000     
   1.5141630069453692E-002   2.9602783423148538E-002   0.0000000000000000     
   2.6081798721429472E-002   3.0183323554595583E-002   0.0000000000000000     
   4.7143069902776877E-002   2.8020470540391810E-002   0.0000000000000000     
   7.8325443613495915E-002   2.3114224380537219E-002   0.0000000000000000     
   1.2175414458049684E-002   2.7209556178313277E-002   0.0000000000000000     
   1.1194346054939786E-002   2.7453242504171273E-002   0.0000000000000000     
   2.0737784626492548E-002   2.3789391241734060E-002   0.0000000000000000     
   4.0805730172707971E-002   1.6218002391001629E-002   0.0000000000000000     
   7.1398182693586054E-002   4.7390759519739863E-003   0.0000000000000000     
   1.3878761238338212E-002   2.6685509082501883E-002   0.0000000000000000     
   1.2776523069641820E-002   2.5331974856455237E-002   0.0000000000000000     
   2.1026273031390142E-002   1.9740685485185008E-002   0.0000000000000000     
   3.8628011123583196E-002   9.9116409686911804E-003   0.0000000000000000     
   6.5581737346220970E-002  -4.1551586930262353E-003   0.0000000000000000     
   1.9432604287715129E-002   2.4706708858616498E-002   0.0000000000000000     
   1.9888161113559795E-002   2.3238980480000428E-002   0.0000000000000000     
   2.6947263936122266E-002   1.8037206284948416E-002   0.0000000000000000     
   4.0609912755402544E-002   9.1013862734604621E-003   0.0000000000000000     
   6.0876107571400641E-002  -3.5684795544634511E-003   0.0000000000000000     
   2.8836943606180439E-002   2.1273155506657107E-002   0.0000000000000000     
   3.2529260186693713E-002   2.1174259374806853E-002   0.0000000000000000     
   3.8500757340688890E-002   1.8678953641024305E-002   0.0000000000000000     
   4.6751435068166022E-002   1.3787238305309467E-002   0.0000000000000000     
   5.7281293369125075E-002   6.4991133676623476E-003   0.0000000000000000     
   0.0000000000000000        0.0000000000000000        0.0000000000000000     
   6.4901370568484329E-004  -1.5931913520627426E-003   0.0000000000000000     
   1.3498308590495195E-003  -3.2800815341858494E-003   0.0000000000000000     
   2.1024514600940288E-003  -5.0606705463693202E-003   0.0000000000000000     
   2.9068755088183704E-003  -6.9349583886131536E-003   0.0000000000000000     
   0.0000000000000000        0.0000000000000000        0.0000000000000000     
   6.2330033954758853E-004  -1.7960001564128918E-003   0.0000000000000000     
   1.3343305319229841E-003  -3.6030479710724120E-003   0.0000000000000000     
   2.1330905771261865E-003  -5.4211434439785594E-003   0.0000000000000000     
   3.0195804751571961E-003  -7.2502865751313357E-003   0.0000000000000000     
   0.0000000000000000        0.0000000000000000        0.0000000000000000     
   5.9388512620719796E-004  -1.9543166674785514E-003   0.0000000000000000     
   1.2927252494217272E-003  -3.8714210777854629E-003   0.0000000000000000     
   2.0965203696435876E-003  -5.7513132309207331E-003   0.0000000000000000     
   3.0052704868727799E-003  -7.5939931268843670E-003   0.0000000000000000     
   0.0000000000000000        0.0000000000000000        0.0000000000000000     
   5.6076806566367145E-004  -2.0681408852597206E-003   0.0000000000000000     
   1.2250150115457488E-003  -4.0852008543250029E-003   0.0000000000000000     
   1.9927408376462325E-003  -6.0511799071958430E-003   0.0000000000000000     
   2.8639455439651213E-003  -7.9660780438722441E-003   0.0000000000000000     
   0.0000000000000000        0.0000000000000000        0.0000000000000000     
   5.2394915791700934E-004  -2.1374728097564005E-003   0.0000000000000000     
   1.1311998182950494E-003  -4.2443873006910290E-003   0.0000000000000000     
   1.8217519811341201E-003  -6.3207434728038865E-003   0.0000000000000000     
   2.5956056464342221E-003  -8.3665413260949721E-003   0.0000000000000000     
   2.9068755088183704E-003  -6.9349583886131536E-003   0.0000000000000000     
   3.8021899864184440E-003  -8.8188317010255805E-003   0.0000000000000000     
   4.8274818740901473E-003  -1.0628177123714827E-002   0.0000000000000000     
   5.9827511718334838E-003  -1.2362994656680898E-002   0.0000000000000000     
   7.2679978796484496E-003  -1.4023284299923788E-002   0.0000000000000000     
   3.0195804751571961E-003  -7.2502865751313357E-003   0.0000000000000000     
   3.9813626001497654E-003  -9.0962741435112512E-003   0.0000000000000000     
   5.0059993262376477E-003  -1.0964902928098820E-002   0.0000000000000000     
   6.0934906534208400E-003  -1.2856172928894039E-002   0.0000000000000000     
   7.2438365816993467E-003  -1.4770084145896910E-002   0.0000000000000000     
   3.0052704868727799E-003  -7.5939931268843670E-003   0.0000000000000000     
   3.9782956376918609E-003  -9.4471030129440834E-003   0.0000000000000000     
   4.9749158586833873E-003  -1.1358285136367607E-002   0.0000000000000000     
   5.9951311498473592E-003  -1.3327539497154943E-002   0.0000000000000000     
   7.0389415111837775E-003  -1.5354866095306084E-002   0.0000000000000000     
   2.8639455439651213E-003  -7.9660780438722441E-003   0.0000000000000000     
   3.7929890990447291E-003  -9.8713183093240720E-003   0.0000000000000000     
   4.7342314714273678E-003  -1.1808323748521192E-002   0.0000000000000000     
   5.6876726611130371E-003  -1.3777094361463606E-002   0.0000000000000000     
   6.6533126681017360E-003  -1.5777630148151311E-002   0.0000000000000000     
   2.5956056464342221E-003  -8.3665413260949721E-003   0.0000000000000000     
   3.4254429842083727E-003  -1.0368920032651222E-002   0.0000000000000000     
   4.2839461644695910E-003  -1.2315018764559574E-002   0.0000000000000000     
   5.1711151872178753E-003  -1.4204837521820033E-002   0.0000000000000000     
   6.0869500524532291E-003  -1.6038376304432590E-002   0.0000000000000000     
   7.2679978796484496E-003  -1.4023284299923788E-002   0.0000000000000000     
   8.7100158093400461E-003  -1.5596332641443620E-002   0.0000000000000000     