 <VTKFile type="UnstructuredGrid"  version="0.1"   >
 <UnstructuredGrid>
 <Piece  NumberOfPoints="          1600 "  NumberOfCells="         1024 ">
 <Points>
 <DataArray  type="Float64" NumberOfComponents="3"  format="ascii" >
   0.0000000000000000        0.0000000000000000        0.0000000000000000     
   3.1250000000000000E-002   0.0000000000000000        0.0000000000000000     
   6.2500000000000000E-002   0.0000000000000000        0.0000000000000000     
   9.3750000000000000E-002   0.0000000000000000        0.0000000000000000     
  0.12500000000000000        0.0000000000000000        0.0000000000000000     
   0.0000000000000000        3.1250000000000000E-002   0.0000000000000000     
   3.1250000000000000E-002   3.1250000000000000E-002   0.0000000000000000     
   6.2500000000000000E-002   3.1250000000000000E-002   0.0000000000000000     
   9.3750000000000000E-002   3.1250000000000000E-002   0.0000000000000000     
  0.12500000000000000        3.1250000000000000E-002   0.0000000000000000     
   0.0000000000000000        6.2500000000000000E-002   0.0000000000000000     
   3.1250000000000000E-002   6.2500000000000000E-002   0.0000000000000000     
   6.2500000000000000E-002   6.2500000000000000E-002   0.0000000000000000     
   9.3750000000000000E-002   6.2500000000000000E-002   0.0000000000000000     
  0.12500000000000000        6.2500000000000000E-002   0.0000000000000000     
   0.0000000000000000        9.3750000000000000E-002   0.0000000000000000     
   3.1250000000000000E-002   9.3750000000000000E-002   0.0000000000000000     
   6.2500000000000000E-002   9.3750000000000000E-002   0.0000000000000000     
   9.3750000000000000E-002   9.3750000000000000E-002   0.0000000000000000     
  0.12500000000000000        9.3750000000000000E-002   0.0000000000000000     
   0.0000000000000000       0.12500000000000000        0.0000000000000000     
   3.1250000000000000E-002  0.12500000000000000        0.0000000000000000     
   6.2500000000000000E-002  0.12500000000000000        0.0000000000000000     
   9.3750000000000000E-002  0.12500000000000000        0.0000000000000000     
  0.12500000000000000       0.12500000000000000        0.0000000000000000     
  0.12500000000000000        0.0000000000000000        0.0000000000000000     
  0.15625000000000000        0.0000000000000000        0.0000000000000000     
  0.18750000000000000        0.0000000000000000        0.0000000000000000     
  0.21875000000000000        0.0000000000000000        0.0000000000000000     
  0.25000000000000000        0.0000000000000000        0.0000000000000000     
  0.12500000000000000        3.1250000000000000E-002   0.0000000000000000     
  0.15625000000000000        3.1250000000000000E-002   0.0000000000000000     
  0.18750000000000000        3.1250000000000000E-002   0.0000000000000000     
  0.21875000000000000        3.1250000000000000E-002   0.0000000000000000     
  0.25000000000000000        3.1250000000000000E-002   0.0000000000000000     
  0.12500000000000000        6.2500000000000000E-002   0.0000000000000000     
  0.15625000000000000        6.2500000000000000E-002   0.0000000000000000     
  0.18750000000000000        6.2500000000000000E-002   0.0000000000000000     
  0.21875000000000000        6.2500000000000000E-002   0.0000000000000000     
  0.25000000000000000        6.2500000000000000E-002   0.0000000000000000     
  0.12500000000000000        9.3750000000000000E-002   0.0000000000000000     
  0.15625000000000000        9.3750000000000000E-002   0.0000000000000000     
  0.18750000000000000        9.3750000000000000E-002   0.0000000000000000     
  0.21875000000000000        9.3750000000000000E-002   0.0000000000000000     
  0.25000000000000000        9.3750000000000000E-002   0.0000000000000000     
  0.12500000000000000       0.12500000000000000        0.0000000000000000     
  0.15625000000000000       0.12500000000000000        0.0000000000000000     
  0.18750000000000000       0.12500000000000000        0.0000000000000000     
  0.21875000000000000       0.12500000000000000        0.0000000000000000     
  0.25000000000000000       0.12500000000000000        0.0000000000000000     
  0.25000000000000000        0.0000000000000000        0.0000000000000000     
  0.28125000000000000        0.0000000000000000        0.0000000000000000     
  0.31250000000000000        0.0000000000000000        0.0000000000000000     
  0.34375000000000000        0.0000000000000000        0.0000000000000000     
  0.37500000000000000        0.0000000000000000        0.0000000000000000     
  0.25000000000000000        3.1250000000000000E-002   0.0000000000000000     
  0.28125000000000000        3.1250000000000000E-002   0.0000000000000000     
  0.31250000000000000        3.1250000000000000E-002   0.0000000000000000     
  0.34375000000000000        3.1250000000000000E-002   0.0000000000000000     
  0.37500000000000000        3.1250000000000000E-002   0.0000000000000000     
  0.25000000000000000        6.2500000000000000E-002   0.0000000000000000     
  0.28125000000000000        6.2500000000000000E-002   0.0000000000000000     
  0.31250000000000000        6.2500000000000000E-002   0.0000000000000000     
  0.34375000000000000        6.2500000000000000E-002   0.0000000000000000     
  0.37500000000000000        6.2500000000000000E-002   0.0000000000000000     
  0.25000000000000000        9.3750000000000000E-002   0.0000000000000000     
  0.28125000000000000        9.3750000000000000E-002   0.0000000000000000     
  0.31250000000000000        9.3750000000000000E-002   0.0000000000000000     
  0.34375000000000000        9.3750000000000000E-002   0.0000000000000000     
  0.37500000000000000        9.3750000000000000E-002   0.0000000000000000     
  0.25000000000000000       0.12500000000000000        0.0000000000000000     
  0.28125000000000000       0.12500000000000000        0.0000000000000000     
  0.31250000000000000       0.12500000000000000        0.0000000000000000     
  0.34375000000000000       0.12500000000000000        0.0000000000000000     
  0.37500000000000000       0.12500000000000000        0.0000000000000000     
  0.37500000000000000        0.0000000000000000        0.0000000000000000     
  0.40625000000000000        0.0000000000000000        0.0000000000000000     
  0.43750000000000000        0.0000000000000000        0.0000000000000000     
  0.46875000000000000        0.0000000000000000        0.0000000000000000     
  0.50000000000000000        0.0000000000000000        0.0000000000000000     
  0.37500000000000000        3.1250000000000000E-002   0.0000000000000000     
  0.40625000000000000        3.1250000000000000E-002   0.0000000000000000     
  0.43750000000000000        3.1250000000000000E-002   0.0000000000000000     
  0.46875000000000000        3.1250000000000000E-002   0.0000000000000000     
  0.50000000000000000        3.1250000000000000E-002   0.0000000000000000     
  0.37500000000000000        6.2500000000000000E-002   0.0000000000000000     
  0.40625000000000000        6.2500000000000000E-002   0.0000000000000000     
  0.43750000000000000        6.2500000000000000E-002   0.0000000000000000     
  0.46875000000000000        6.2500000000000000E-002   0.0000000000000000     
  0.50000000000000000        6.2500000000000000E-002   0.0000000000000000     
  0.37500000000000000        9.3750000000000000E-002   0.0000000000000000     
  0.40625000000000000        9.3750000000000000E-002   0.0000000000000000     
  0.43750000000000000        9.3750000000000000E-002   0.0000000000000000     
  0.46875000000000000        9.3750000000000000E-002   0.0000000000000000     
  0.50000000000000000        9.3750000000000000E-002   0.0000000000000000     
  0.37500000000000000       0.12500000000000000        0.0000000000000000     
  0.40625000000000000       0.12500000000000000        0.0000000000000000     
  0.43750000000000000       0.12500000000000000        0.0000000000000000     
  0.46875000000000000       0.12500000000000000        0.0000000000000000     
  0.50000000000000000       0.12500000000000000        0.0000000000000000     
  0.50000000000000000        0.0000000000000000        0.0000000000000000     
  0.53125000000000000        0.0000000000000000        0.0000000000000000     
  0.56250000000000000        0.0000000000000000        0.0000000000000000     
  0.59375000000000000        0.0000000000000000        0.0000000000000000     
  0.62500000000000000        0.0000000000000000        0.0000000000000000     
  0.50000000000000000        3.1250000000000000E-002   0.0000000000000000     
  0.53125000000000000        3.1250000000000000E-002   0.0000000000000000     
  0.56250000000000000        3.1250000000000000E-002   0.0000000000000000     
  0.59375000000000000        3.1250000000000000E-002   0.0000000000000000     
  0.62500000000000000        3.1250000000000000E-002   0.0000000000000000     
  0.50000000000000000        6.2500000000000000E-002   0.0000000000000000     
  0.53125000000000000        6.2500000000000000E-002   0.0000000000000000     
  0.56250000000000000        6.2500000000000000E-002   0.0000000000000000     
  0.59375000000000000        6.2500000000000000E-002   0.0000000000000000     
  0.62500000000000000        6.2500000000000000E-002   0.0000000000000000     
  0.50000000000000000        9.3750000000000000E-002   0.0000000000000000     
  0.53125000000000000        9.3750000000000000E-002   0.0000000000000000     
  0.56250000000000000        9.3750000000000000E-002   0.0000000000000000     
  0.59375000000000000        9.3750000000000000E-002   0.0000000000000000     
  0.62500000000000000        9.3750000000000000E-002   0.0000000000000000     
  0.50000000000000000       0.12500000000000000        0.0000000000000000     
  0.53125000000000000       0.12500000000000000        0.0000000000000000     
  0.56250000000000000       0.12500000000000000        0.0000000000000000     
[...]
 <PointData>
 <DataArray  type="Float64" Name="disp" NumberOfComponents="3" format="ascii">
   0.0000000000000000        0.0000000000000000        0.0000000000000000     
   6.0959949507719555E-003   3.7904338223750229E-003   0.0000000000000000     
   1.1666039310791585E-002   7.3238619924910452E-003   0.0000000000000000     
   1.6710133080058885E-002   1.0600284510348067E-002   0.0000000000000000     
   2.1228276258573868E-002   1.3619701375946088E-002   0.0000000000000000     
   0.0000000000000000        0.0000000000000000        0.0000000000000000     
   4.8911610394126639E-003   3.0221629765020174E-003   0.0000000000000000     
   9.5736479598629506E-003   6.0605681174209433E-003   0.0000000000000000     
   1.4047460761350859E-002   9.1152154227567769E-003   0.0000000000000000     
   1.8312599443876386E-002   1.2186104892509521E-002   0.0000000000000000     
   0.0000000000000000        0.0000000000000000        0.0000000000000000     
   3.9535651079202995E-003   2.4251433927518079E-003   0.0000000000000000     
   7.9106235389522460E-003   5.0629363524940067E-003   0.0000000000000000     
   1.1871175293095839E-002   7.9133788792265982E-003   0.0000000000000000     
   1.5835220370351077E-002   1.0976470972949579E-002   0.0000000000000000     
   0.0000000000000000        0.0000000000000000        0.0000000000000000     
   3.2832071562948597E-003   1.9993750711243940E-003   0.0000000000000000     
   6.6769660480594699E-003   4.3309666977102363E-003   0.0000000000000000     
   1.0181276675293829E-002   6.9947748797575277E-003   0.0000000000000000     
   1.3796139037997939E-002   9.9907996172662640E-003   0.0000000000000000     
   0.0000000000000000        0.0000000000000000        0.0000000000000000     
   2.8800871845363453E-003   1.7448580116197756E-003   0.0000000000000000     
   5.8726754871846224E-003   3.8646591530696319E-003   0.0000000000000000     
   8.9777649079448296E-003   6.3594034243495672E-003   0.0000000000000000     
   1.2195355446816969E-002   9.2290908254595849E-003   0.0000000000000000     
   2.1228276258573868E-002   1.3619701375946088E-002   0.0000000000000000     
   2.5433376376484275E-002   1.6612697630336713E-002   0.0000000000000000     
   2.9538340963937870E-002   1.9809858314571549E-002   0.0000000000000000     
   3.3543170020934647E-002   2.3211183428650587E-002   0.0000000000000000     
   3.7447863547474612E-002   2.6816672972573837E-002   0.0000000000000000     
   1.8312599443876386E-002   1.2186104892509521E-002   0.0000000000000000     
   2.2407281972358660E-002   1.5341590028822091E-002   0.0000000000000000     
   2.6369726311716794E-002   1.8650024333837410E-002   0.0000000000000000     
   3.0199932461950792E-002   2.2111407807555484E-002   0.0000000000000000     
   3.3897900423060651E-002   2.5725740449976310E-002   0.0000000000000000     
   1.5835220370351077E-002   1.0976470972949579E-002   0.0000000000000000     
   1.9730975438836621E-002   1.4211048403675396E-002   0.0000000000000000     
   2.3486657166671112E-002   1.7575946941416488E-002   0.0000000000000000     
   2.7102265553854556E-002   2.1071166586172866E-002   0.0000000000000000     
   3.0577800600386958E-002   2.4696707337944525E-002   0.0000000000000000     
   1.3796139037997939E-002   9.9907996172662640E-003   0.0000000000000000     
   1.7404456775918155E-002   1.3221072754896630E-002   0.0000000000000000     
   2.0889133528800823E-002   1.6587626137308787E-002   0.0000000000000000     
   2.4250169296645953E-002   2.0090459764502733E-002   0.0000000000000000     
   2.7487564079453533E-002   2.3729573636478478E-002   0.0000000000000000     
   1.2195355446816969E-002   9.2290908254595849E-003   0.0000000000000000     
   1.5427725983603263E-002   1.2371663082485791E-002   0.0000000000000000     
   1.8577155398105925E-002   1.5685061921514289E-002   0.0000000000000000     
   2.1643643690324968E-002   1.9169287342545086E-002   0.0000000000000000     
   2.4627190860260380E-002   2.2824339345578176E-002   0.0000000000000000     
   3.7447863547474612E-002   2.6816672972573837E-002   0.0000000000000000     
   4.1256613346041388E-002   3.0621746748357371E-002   0.0000000000000000     
   4.4973611219118609E-002   3.4621824558017253E-002   0.0000000000000000     
   4.8598857166706262E-002   3.8816906401553504E-002   0.0000000000000000     
   5.2132351188804348E-002   4.3206992278966114E-002   0.0000000000000000     
   3.3897900423060651E-002   2.5725740449976310E-002   0.0000000000000000     
   3.7486704774789902E-002   2.9521892655448086E-002   0.0000000000000000     
   4.0989420096882064E-002   3.3528734818319028E-002   0.0000000000000000     
   4.4406046389337143E-002   3.7746266938589124E-002   0.0000000000000000     
   4.7736583652155141E-002   4.2174489016258372E-002   0.0000000000000000     
   3.0577800600386958E-002   2.4696707337944525E-002   0.0000000000000000     
   3.3942625868909428E-002   2.8497139888750210E-002   0.0000000000000000     
   3.7226104922063102E-002   3.2517034930608688E-002   0.0000000000000000     
   4.0428237759847961E-002   3.6756392463519950E-002   0.0000000000000000     
   4.3549024382264032E-002   4.1215212487483999E-002   0.0000000000000000     
   2.7487564079453533E-002   2.3729573636478478E-002   0.0000000000000000     
   3.0624376628399990E-002   2.7547488448263747E-002   0.0000000000000000     
   3.3683665694661712E-002   3.1586724894886252E-002   0.0000000000000000     
   3.6665431278238722E-002   3.5847282976346005E-002   0.0000000000000000     
   3.9569673379131018E-002   4.0329162692643000E-002   0.0000000000000000     
   2.4627190860260380E-002   2.2824339345578176E-002   0.0000000000000000     
   2.7531957053261565E-002   2.6672938333988681E-002   0.0000000000000000     
   3.0362102414677912E-002   3.0737804711151711E-002   0.0000000000000000     
   3.3117626944509433E-002   3.5018938477067274E-002   0.0000000000000000     
   3.5798530642756114E-002   3.9516339631735363E-002   0.0000000000000000     
   5.2132351188804348E-002   4.3206992278966114E-002   0.0000000000000000     
   5.5571916018528407E-002   4.7796390111175126E-002   0.0000000000000000     
   5.8915374388993948E-002   5.2589407819100598E-002   0.0000000000000000     
   6.2162726300200991E-002   5.7586045402742515E-002   0.0000000000000000     
   6.5313971752149508E-002   6.2786302862100879E-002   0.0000000000000000     
   4.7736583652155141E-002   4.2174489016258372E-002   0.0000000000000000     
   5.0977240835430163E-002   4.6806735144857024E-002   0.0000000000000000     
   5.4124226889256347E-002   5.1636339417915303E-002   0.0000000000000000     
   5.7177541813633700E-002   5.6663301835433194E-002   0.0000000000000000     
   6.0137185608562196E-002   6.1887622397410726E-002   0.0000000000000000     
   4.3549024382264032E-002   4.1215212487483999E-002   0.0000000000000000     
   4.6584489337101076E-002   4.5880883836123001E-002   0.0000000000000000     
   4.9530657172148891E-002   5.0740795343059114E-002   0.0000000000000000     
   5.2387527887407484E-002   5.5794947008292357E-002   0.0000000000000000     
   5.5155101482876834E-002   6.1043338831822697E-002   0.0000000000000000     
   3.9569673379131018E-002   4.0329162692643000E-002   0.0000000000000000     
   4.2393661523541119E-002   4.5018836184973071E-002   0.0000000000000000     
   4.5134665237671547E-002   4.9902775594532059E-002   0.0000000000000000     
   4.7792684521522313E-002   5.4980980921319964E-002   0.0000000000000000     
   5.0367719375093406E-002   6.0253452165336792E-002   0.0000000000000000     
   3.5798530642756114E-002   3.9516339631735363E-002   0.0000000000000000     
   3.8404757394750300E-002   4.4220592191407226E-002   0.0000000000000000     
   4.0936251085824334E-002   4.9122280172334123E-002   0.0000000000000000     
   4.3393011715978216E-002   5.4221403574516047E-002   0.0000000000000000     
   4.5775039285211934E-002   5.9517962397952991E-002   0.0000000000000000     
   6.5313971752149508E-002   6.2786302862100879E-002   0.0000000000000000     
   6.8370874385286912E-002   6.8177166084937957E-002   0.0000000000000000     
   7.1335197840060552E-002   7.3745620959015962E-002   0.0000000000000000     
   7.4206942116470442E-002   7.9491667484334894E-002   0.0000000000000000     
   7.6986107214516569E-002   8.5415305660894780E-002   0.0000000000000000     
   6.0137185608562196E-002   6.1887622397410726E-002   0.0000000000000000     
   6.3006474754855185E-002   6.7300723146990246E-002   0.0000000000000000     
   6.5788725733326017E-002   7.2894026127314118E-002   0.0000000000000000     
   6.8483938543974679E-002   7.8667531338382363E-002   0.0000000000000000     
   7.1092113186801170E-002   8.4621238780194952E-002   0.0000000000000000     
   5.5155101482876834E-002   6.1043338831822697E-002   0.0000000000000000     
   5.7837121382827657E-002   6.6479671638395035E-002   0.0000000000000000     
   6.0437331011530662E-002   7.2097646252754291E-002   0.0000000000000000     
   6.2955730368985857E-002   7.7897262674900436E-002   0.0000000000000000     
   6.5392319455193235E-002   8.3878520904833442E-002   0.0000000000000000     
   5.0367719375093406E-002   6.0253452165336792E-002   0.0000000000000000     
   5.2862814269204313E-002   6.5714011559152338E-002   0.0000000000000000     
   5.5281013674674515E-002   7.1356481335336425E-002   0.0000000000000000     
   5.7622317591504005E-002   7.7180861493889072E-002   0.0000000000000000     
   5.9886726019692790E-002   8.3187152034810252E-002   0.0000000000000000     
   4.5775039285211934E-002   5.9517962397952991E-002   0.0000000000000000     
   4.8083553413985167E-002   6.5003742909262113E-002   0.0000000000000000     
   5.0319773722757560E-002   7.0670531375060561E-002   0.0000000000000000     
   5.2483700211529115E-002   7.6518327795348326E-002   0.0000000000000000     
   5.4575332880299823E-002   8.2547132170125409E-002   0.0000000000000000     
   7.6986107214516569E-002   8.5415305660894780E-002   0.0000000000000000     
   7.9668683603957013E-002   9.1507408017971137E-002   0.0000000000000000     
   8.2250661754549897E-002   9.7758847084839520E-002   0.0000000000000000     
   8.4732041666295166E-002  0.10416962286149992        0.0000000000000000     
   8.7112823339192874E-002  0.11073973534795234        0.0000000000000000     
   7.1092113186801170E-002   8.4621238780194952E-002   0.0000000000000000     
   7.3609108696665343E-002   9.0743894224580235E-002   0.0000000000000000     
   7.6030784108427105E-002   9.7024243443366548E-002   0.0000000000000000     
   7.8357139422086455E-002  0.10346228643655389        0.0000000000000000     
   8.0588174637643381E-002  0.11005802320414226        0.0000000000000000     
   6.5392319455193235E-002   8.3878520904833442E-002   0.0000000000000000     
   6.7743165636580990E-002   9.0028963364506401E-002   0.0000000000000000     
   7.0004336279577375E-002   9.6336132475872360E-002   0.0000000000000000     
   7.2175831384182335E-002  0.10280002823893129        0.0000000000000000     
   7.4257650950395923E-002  0.10942065065368323        0.0000000000000000     
   5.9886726019692790E-002   8.3187152034810252E-002   0.0000000000000000     
   6.2070854423703976E-002   8.9362615437749676E-002   0.0000000000000000     
   6.4171318268000641E-002   9.5694514182356971E-002   0.0000000000000000     
   6.6188117552582817E-002  0.10218284826863218        0.0000000000000000     
   6.8121252277450500E-002  0.10882761769657526        0.0000000000000000     
   5.4575332880299823E-002   8.2547132170125409E-002   0.0000000000000000     
   5.6592175058034253E-002   8.8744850444310019E-002   0.0000000000000000     
   5.8531730073696948E-002   9.5099388562820353E-002   0.0000000000000000     
   6.0393997927287904E-002  0.10161074652565645        0.0000000000000000     
   6.2178978618807113E-002  0.10827892433281827        0.0000000000000000     
   8.7112823339192874E-002  0.11073973534795234        0.0000000000000000     
   8.9399090959308522E-002  0.11745522896103006        0.0000000000000000     
   9.1596928712707679E-002  0.12430214811756635        0.0000000000000000     
   9.3706336599390358E-002  0.13128049281756121        0.0000000000000000     
   9.5727314619356518E-002  0.13839026306101465        0.0000000000000000     
   8.0588174637643381E-002  0.11005802320414226        0.0000000000000000     
   8.2730931284254169E-002  0.11679939962966440        0.0000000000000000     
   8.4792450891075219E-002  0.12367436159665295        0.0000000000000000     
   8.6772733458106460E-002  0.13068290910510799        0.0000000000000000     
   8.8671778985347949E-002  0.13782504215502944        0.0000000000000000     
   7.4257650950395923E-002  0.10942065065368323        0.0000000000000000     
   7.6257148518752191E-002  0.11618710814192136        0.0000000000000000     
   7.8181677629785257E-002  0.12308850912543892        0.0000000000000000     
   8.0031238283495093E-002  0.13012485360423590        0.0000000000000000     
   8.1805830479881742E-002  0.13729614157831233        0.0000000000000000     
   6.8121252277450500E-002  0.10882761769657526        0.0000000000000000     
   6.9977742662802531E-002  0.11561835449780100        0.0000000000000000     
   7.1764608928837764E-002  0.12254459070392426        0.0000000000000000     
   7.3481851075556243E-002  0.12960632631494504        0.0000000000000000     
   7.5129469102957910E-002  0.13680356133086330        0.0000000000000000     
   6.2178978618807113E-002  0.10827892433281827        0.0000000000000000     
   6.3892713716405203E-002  0.11509313869730331        0.0000000000000000     
   6.5541244788232797E-002  0.12204260633210898        0.0000000000000000     
   6.7124571834289881E-002  0.12912732723723530        0.0000000000000000     
   6.8642694854576483E-002  0.13634730141268228        0.0000000000000000     
   9.5727314619356518E-002  0.13839026306101465        0.0000000000000000     
   9.7654357016569937E-002  0.14562504403838494        0.0000000000000000     
   9.9481958034994322E-002  0.15297842094013039        0.0000000000000000     
  0.10121011767462969       0.16045039376625098        0.0000000000000000     
  0.10283883593547605       0.16804096251674669        0.0000000000000000     
   8.8671778985347949E-002  0.13782504215502944        0.0000000000000000     
   9.0480456294327632E-002  0.14508875331772131        0.0000000000000000     
   9.2189634206573529E-002  0.15246203516448747        0.0000000000000000     
   9.3799312722085651E-002  0.15994488769532797        0.0000000000000000     
   9.5309491840863958E-002  0.16753731091024276        0.0000000000000000     
   8.1805830479881742E-002  0.13729614157831233        0.0000000000000000     
   8.3494361821505242E-002  0.14458714881982607        0.0000000000000000     
   8.5085739910925648E-002  0.15198265110093517        0.0000000000000000     
   8.6579964748142973E-002  0.15948264842163948        0.0000000000000000     
   8.7977036333157205E-002  0.16708714078193918        0.0000000000000000     
   7.5129469102957910E-002  0.13680356133086330        0.0000000000000000     
   7.6696073598102751E-002  0.14412023054469930        0.0000000000000000     
   7.8170275148050666E-002  0.15154026874947338        0.0000000000000000     
   7.9552073752801683E-002  0.15906367594518558        0.0000000000000000     
   8.0841469412355788E-002  0.16669045213183586        0.0000000000000000     
   6.8642694854576483E-002  0.13634730141268228        0.0000000000000000     
   7.0085591624120189E-002  0.14368799849234093        0.0000000000000000     
   7.1443239917948625E-002  0.15113488811010223        0.0000000000000000     
   7.2715639736061780E-002  0.15868797026596621        0.0000000000000000     
   7.3902791078459679E-002  0.16634724495993289        0.0000000000000000     
   0.0000000000000000        0.0000000000000000        0.0000000000000000     
   2.8800871845363453E-003   1.7448580116197756E-003   0.0000000000000000     
   5.8726754871846224E-003   3.8646591530696319E-003   0.0000000000000000     
   8.9777649079448296E-003   6.3594034243495672E-003   0.0000000000000000     
   1.2195355446816969E-002   9.2290908254595849E-003   0.0000000000000000     
   0.0000000000000000        0.0000000000000000        0.0000000000000000     
   2.6103522008324286E-003   1.5889373812938547E-003   0.0000000000000000     
   5.2897625686708777E-003   3.5567069217840963E-003   0.0000000000000000     
   8.0382311035153489E-003   5.9033086214707242E-003   0.0000000000000000     
   1.0855757805365839E-002   8.6287424803537412E-003   0.0000000000000000     
   0.0000000000000000        0.0000000000000000        0.0000000000000000     
   2.3401492133707799E-003   1.4589583472025326E-003   0.0000000000000000     
   4.7202380048614089E-003   3.2998032070655340E-003   0.0000000000000000     
   7.1402663744718868E-003   5.5225345795890043E-003   0.0000000000000000     
   9.6002343222022155E-003   8.1271524647729427E-003   0.0000000000000000     
   0.0000000000000000        0.0000000000000000        0.0000000000000000     
   2.0694782221514002E-003   1.3549209093458104E-003   0.0000000000000000     
   4.1641017957562152E-003   3.0939480089139455E-003   0.0000000000000000     
   6.2838707208144494E-003   5.2170812987044060E-003   0.0000000000000000     
   8.4287849973261001E-003   7.7243207787171921E-003   0.0000000000000000     
   0.0000000000000000        0.0000000000000000        0.0000000000000000     
   1.7983392271742882E-003   1.2768250677236870E-003   0.0000000000000000     
   3.6213539413552987E-003   2.9391413273293309E-003   0.0000000000000000     
   5.4690441425430322E-003   4.9869487788169308E-003   0.0000000000000000     
   7.3414098307374876E-003   7.4202474221864894E-003   0.0000000000000000     
   1.2195355446816969E-002   9.2290908254595849E-003   0.0000000000000000     
   1.5427725983603263E-002   1.2371663082485791E-002   0.0000000000000000     
   1.8577155398105925E-002   1.5685061921514289E-002   0.0000000000000000     
   2.1643643690324968E-002   1.9169287342545086E-002   0.0000000000000000     
   2.4627190860260380E-002   2.2824339345578176E-002   0.0000000000000000     
   1.0855757805365839E-002   8.6287424803537412E-003   0.0000000000000000     
   1.3689040531636457E-002   1.1650752300205385E-002   0.0000000000000000     
   1.6484777139741304E-002   1.4887081882797901E-002   0.0000000000000000     
   1.9242967629680384E-002   1.8337731228131284E-002   0.0000000000000000     
   2.1963612001453692E-002   2.2002700336205543E-002   0.0000000000000000     
   9.6002343222022155E-003   8.1271524647729427E-003   0.0000000000000000     
   1.2076657889762248E-002   1.1046273321817917E-002   0.0000000000000000     
   1.4546053118861828E-002   1.4212513609924503E-002   0.0000000000000000     
   1.7008420009500969E-002   1.7625873329092701E-002   0.0000000000000000     
   1.9463758561679659E-002   2.1286352479322493E-002   0.0000000000000000     
   8.4287849973261001E-003   7.7243207787171921E-003   0.0000000000000000     
   1.0590578057980629E-002   1.0558226147323392E-002   0.0000000000000000     
   1.2760983335467501E-002   1.3661357102894100E-002   0.0000000000000000     
   1.4940000829786719E-002   1.7033713645429317E-002   0.0000000000000000     
   1.7127630540938282E-002   2.0675295774929037E-002   0.0000000000000000     
   7.3414098307374876E-003   7.4202474221864894E-003   0.0000000000000000     
   9.2308010362916054E-003   1.0186610776721809E-002   0.0000000000000000     
   1.1129567789558323E-002   1.3233612361706695E-002   0.0000000000000000     
   1.3037710090537641E-002   1.6561252177141151E-002   0.0000000000000000     
   1.4955227939229560E-002   2.0169530223025169E-002   0.0000000000000000     
   2.4627190860260380E-002   2.2824339345578176E-002   0.0000000000000000     
   2.7531957053261565E-002   2.6672938333988681E-002   0.0000000000000000     