 <VTKFile type="UnstructuredGrid"  version="0.1"   >
 <UnstructuredGrid>
 <Piece  NumberOfPoints="          1600 "  NumberOfCells="         1024 ">
 <Points>
 <DataArray  type="Float64" NumberOfComponents="3"  format="ascii" >
   0.0000000000000000        0.0000000000000000        0.0000000000000000     
   3.1250000000000000E-002   0.0000000000000000        0.0000000000000000     
   6.2500000000000000E-002   0.0000000000000000        0.0000000000000000     
   9.3750000000000000E-002   0.0000000000000000        0.0000000000000000     
  0.12500000000000000        0.0000000000000000        0.0000000000000000     
   0.0000000000000000        3.1250000000000000E-002   0.0000000000000000     
   3.1250000000000000E-002   3.1250000000000000E-002   0.0000000000000000     
   6.2500000000000000E-002   3.1250000000000000E-002   0.0000000000000000     
   9.3750000000000000E-002   3.1250000000000000E-002   0.0000000000000000     
  0.12500000000000000        3.1250000000000000E-002   0.0000000000000000     
   0.0000000000000000        6.2500000000000000E-002   0.0000000000000000     
   3.1250000000000000E-002   6.2500000000000000E-002   0.0000000000000000     
   6.2500000000000000E-002   6.2500000000000000E-002   0.0000000000000000     
   9.3750000000000000E-002   6.2500000000000000E-002   0.0000000000000000     
  0.12500000000000000        6.2500000000000000E-002   0.0000000000000000     
   0.0000000000000000        9.3750000000000000E-002   0.0000000000000000     
   3.1250000000000000E-002   9.3750000000000000E-002   0.0000000000000000     
   6.2500000000000000E-002   9.3750000000000000E-002   0.0000000000000000     
   9.3750000000000000E-002   9.3750000000000000E-002   0.0000000000000000     
  0.12500000000000000        9.3750000000000000E-002   0.0000000000000000     
   0.0000000000000000       0.12500000000000000        0.0000000000000000     
   3.1250000000000000E-002  0.12500000000000000        0.0000000000000000     
   6.2500000000000000E-002  0.12500000000000000        0.0000000000000000     
   9.3750000000000000E-002  0.12500000000000000        0.0000000000000000     
  0.12500000000000000       0.12500000000000000        0.0000000000000000     
  0.12500000000000000        0.0000000000000000        0.0000000000000000     
  0.15625000000000000        0.0000000000000000        0.0000000000000000     
  0.18750000000000000        0.0000000000000000        0.0000000000000000     
  0.21875000000000000        0.0000000000000000        0.0000000000000000     
  0.25000000000000000        0.0000000000000000        0.0000000000000000     
  0.12500000000000000        3.1250000000000000E-002   0.0000000000000000     
  0.15625000000000000        3.1250000000000000E-002   0.0000000000000000     
  0.18750000000000000        3.1250000000000000E-002   0.0000000000000000     
  0.21875000000000000        3.1250000000000000E-002   0.0000000000000000     
  0.25000000000000000        3.1250000000000000E-002   0.0000000000000000     
  0.12500000000000000        6.2500000000000000E-002   0.0000000000000000     
  0.15625000000000000        6.2500000000000000E-002   0.0000000000000000     
  0.18750000000000000        6.2500000000000000E-002   0.0000000000000000     
  0.21875000000000000        6.2500000000000000E-002   0.0000000000000000     
  0.25000000000000000        6.2500000000000000E-002   0.0000000000000000     
  0.12500000000000000        9.3750000000000000E-002   0.0000000000000000     
  0.15625000000000000        9.3750000000000000E-002   0.0000000000000000     
  0.18750000000000000        9.3750000000000000E-002   0.0000000000000000     
  0.21875000000000000        9.3750000000000000E-002   0.0000000000000000     
  0.25000000000000000        9.3750000000000000E-002   0.0000000000000000     
  0.12500000000000000       0.12500000000000000        0.0000000000000000     
  0.15625000000000000       0.12500000000000000        0.0000000000000000     
  0.18750000000000000       0.12500000000000000        0.0000000000000000     
  0.21875000000000000       0.12500000000000000        0.0000000000000000     
  0.25000000000000000       0.12500000000000000        0.0000000000000000     
  0.25000000000000000        0.0000000000000000        0.0000000000000000     
  0.28125000000000000        0.0000000000000000        0.0000000000000000     
  0.31250000000000000        0.0000000000000000        0.0000000000000000     
  0.34375000000000000        0.0000000000000000        0.0000000000000000     
  0.37500000000000000        0.0000000000000000        0.0000000000000000     
  0.25000000000000000        3.1250000000000000E-002   0.0000000000000000     
  0.28125000000000000        3.1250000000000000E-002   0.0000000000000000     
  0.31250000000000000        3.1250000000000000E-002   0.0000000000000000     
  0.34375000000000000        3.1250000000000000E-002   0.0000000000000000     
  0.37500000000000000        3.1250000000000000E-002   0.0000000000000000     
  0.25000000000000000        6.2500000000000000E-002   0.0000000000000000     
  0.28125000000000000        6.2500000000000000E-002   0.0000000000000000     
  0.31250000000000000        6.2500000000000000E-002   0.0000000000000000     
  0.34375000000000000        6.2500000000000000E-002   0.0000000000000000     
  0.37500000000000000        6.2500000000000000E-002   0.0000000000000000     
  0.25000000000000000        9.3750000000000000E-002   0.0000000000000000     
  0.28125000000000000        9.3750000000000000E-002   0.0000000000000000     
  0.31250000000000000        9.3750000000000000E-002   0.0000000000000000     
  0.34375000000000000        9.3750000000000000E-002   0.0000000000000000     
  0.37500000000000000        9.3750000000000000E-002   0.0000000000000000     
  0.25000000000000000       0.12500000000000000        0.0000000000000000     
  0.28125000000000000       0.12500000000000000        0.0000000000000000     
  0.31250000000000000       0.12500000000000000        0.0000000000000000     
  0.34375000000000000       0.12500000000000000        0.0000000000000000     
  0.37500000000000000       0.12500000000000000        0.0000000000000000     
  0.37500000000000000        0.0000000000000000        0.0000000000000000     
  0.40625000000000000        0.0000000000000000        0.0000000000000000     
  0.43750000000000000        0.0000000000000000        0.0000000000000000     
  0.46875000000000000        0.0000000000000000        0.0000000000000000     
  0.50000000000000000        0.0000000000000000        0.0000000000000000     
  0.37500000000000000        3.1250000000000000E-002   0.0000000000000000     
  0.40625000000000000        3.1250000000000000E-002   0.0000000000000000     
  0.43750000000000000        3.1250000000000000E-002   0.0000000000000000     
  0.46875000000000000        3.1250000000000000E-002   0.0000000000000000     
  0.50000000000000000        3.1250000000000000E-002   0.0000000000000000     
  0.37500000000000000        6.2500000000000000E-002   0.0000000000000000     
  0.40625000000000000        6.2500000000000000E-002   0.0000000000000000     
  0.43750000000000000        6.2500000000000000E-002   0.0000000000000000     
  0.46875000000000000        6.2500000000000000E-002   0.0000000000000000     
  0.50000000000000000        6.2500000000000000E-002   0.0000000000000000     
  0.37500000000000000        9.3750000000000000E-002   0.0000000000000000     
  0.40625000000000000        9.3750000000000000E-002   0.0000000000000000     
  0.43750000000000000        9.3750000000000000E-002   0.0000000000000000     
  0.46875000000000000        9.3750000000000000E-002   0.0000000000000000     
  0.50000000000000000        9.3750000000000000E-002   0.0000000000000000     
  0.37500000000000000       0.12500000000000000        0.0000000000000000     
  0.40625000000000000       0.12500000000000000        0.0000000000000000     
  0.43750000000000000       0.12500000000000000        0.0000000000000000     
  0.46875000000000000       0.12500000000000000        0.0000000000000000     
  0.50000000000000000       0.12500000000000000        0.0000000000000000     
  0.50000000000000000        0.0000000000000000        0.0000000000000000     
  0.53125000000000000        0.0000000000000000        0.0000000000000000     
  0.56250000000000000        0.0000000000000000        0.0000000000000000     
  0.59375000000000000        0.0000000000000000        0.0000000000000000     
  0.62500000000000000        0.0000000000000000        0.0000000000000000     
  0.50000000000000000        3.1250000000000000E-002   0.0000000000000000     
  0.53125000000000000        3.1250000000000000E-002   0.0000000000000000     
  0.56250000000000000        3.1250000000000000E-002   0.0000000000000000     
  0.59375000000000000        3.1250000000000000E-002   0.0000000000000000     
  0.62500000000000000        3.1250000000000000E-002   0.0000000000000000     
  0.50000000000000000        6.2500000000000000E-002   0.0000000000000000     
  0.53125000000000000        6.2500000000000000E-002   0.0000000000000000     
  0.56250000000000000        6.2500000000000000E-002   0.0000000000000000     
  0.59375000000000000        6.2500000000000000E-002   0.0000000000000000     
  0.62500000000000000        6.2500000000000000E-002   0.0000000000000000     
  0.50000000000000000        9.3750000000000000E-002   0.0000000000000000     
  0.53125000000000000        9.3750000000000000E-002   0.0000000000000000     
  0.56250000000000000        9.3750000000000000E-002   0.0000000000000000     
  0.59375000000000000        9.3750000000000000E-002   0.0000000000000000     
  0.62500000000000000        9.3750000000000000E-002   0.0000000000000000     
  0.50000000000000000       0.12500000000000000        0.0000000000000000     
  0.53125000000000000       0.12500000000000000        0.0000000000000000     
  0.56250000000000000       0.12500000000000000        0.0000000000000000     
[...]
 <PointData>
 <DataArray  type="Float64" Name="disp" NumberOfComponents="3" format="ascii">
   0.0000000000000000        0.0000000000000000        0.0000000000000000     
   6.0958448539834235E-003   3.7904780943161433E-003   0.0000000000000000     
   1.1665815451274986E-002   7.3238636594539323E-003   0.0000000000000000     
   1.6709911791874685E-002   1.0600156695413365E-002   0.0000000000000000     
   2.1228133875782526E-002   1.3619357202194446E-002   0.0000000000000000     
   0.0000000000000000        0.0000000000000000        0.0000000000000000     
   4.8911330833458933E-003   3.0221534614764695E-003   0.0000000000000000     
   9.5735682249545144E-003   6.0605222861713874E-003   0.0000000000000000     
   1.4047305424825865E-002   9.1151064740847519E-003   0.0000000000000000     
   1.8312344682959947E-002   1.2185906025216565E-002   0.0000000000000000     
   0.0000000000000000        0.0000000000000000        0.0000000000000000     
   3.9536052602314967E-003   2.4251016331494580E-003   0.0000000000000000     
   7.9106279763427566E-003   5.0628673863253653E-003   0.0000000000000000     
   1.1871068148333774E-002   7.9132972595277219E-003   0.0000000000000000     
   1.5834925776204555E-002   1.0976391252756528E-002   0.0000000000000000     
   0.0000000000000000        0.0000000000000000        0.0000000000000000     
   3.2832613846402376E-003   1.9993226093351080E-003   0.0000000000000000     
   6.6769947054397087E-003   4.3308989599158661E-003   0.0000000000000000     
   1.0181199962398411E-002   6.9947290517422735E-003   0.0000000000000000     
   1.3795877155516353E-002   9.9908128848143329E-003   0.0000000000000000     
   0.0000000000000000        0.0000000000000000        0.0000000000000000     
   2.8801014565721129E-003   1.7448163900334189E-003   0.0000000000000000     
   5.8726684122453725E-003   3.8646170069428893E-003   0.0000000000000000     
   8.9777008670197805E-003   6.3594018507284102E-003   0.0000000000000000     
   1.2195198820895332E-002   9.2291709213899835E-003   0.0000000000000000     
   2.1228133875782526E-002   1.3619357202194446E-002   0.0000000000000000     
   2.5433273388881041E-002   1.6612192744258195E-002   0.0000000000000000     
   2.9538122017052765E-002   1.9809390886065634E-002   0.0000000000000000     
   3.3542679760297713E-002   2.3210951627616765E-002   0.0000000000000000     
   3.7446946618615862E-002   2.6816874968911587E-002   0.0000000000000000     
   1.8312344682959947E-002   1.2185906025216565E-002   0.0000000000000000     
   2.2406936428189264E-002   1.5341312811128334E-002   0.0000000000000000     
   2.6369331089346328E-002   1.8649718703381571E-002   0.0000000000000000     
   3.0199528666431143E-002   2.2111123701976279E-002   0.0000000000000000     
   3.3897529159443697E-002   2.5725527806912455E-002   0.0000000000000000     
   1.5834925776204555E-002   1.0976391252756528E-002   0.0000000000000000     
   1.9730525492751734E-002   1.4210949359297328E-002   0.0000000000000000     
   2.3486191930771946E-002   1.7575771572435686E-002   0.0000000000000000     
   2.7101925090265200E-002   2.1070857892171585E-002   0.0000000000000000     
   3.0577724971231485E-002   2.4696208318505036E-002   0.0000000000000000     
   1.3795877155516353E-002   9.9908128848143329E-003   0.0000000000000000     
   1.7404040582568447E-002   1.3221102388765185E-002   0.0000000000000000     
   2.0888704541329621E-002   1.6587549493227965E-002   0.0000000000000000     
   2.4249869031799876E-002   2.0090154198202679E-002   0.0000000000000000     
   2.7487534053979207E-002   2.3728916503689326E-002   0.0000000000000000     
   1.2195198820895332E-002   9.2291709213899835E-003   0.0000000000000000     
   1.5427481697639401E-002   1.2371771899531892E-002   0.0000000000000000     
   1.8576868921019347E-002   1.5685052465758416E-002   0.0000000000000000     
   2.1643360491035175E-002   1.9169012620069564E-002   0.0000000000000000     
   2.4626956407686883E-002   2.2823652362465321E-002   0.0000000000000000     
   3.7446946618615862E-002   2.6816874968911587E-002   0.0000000000000000     
   4.1255448938354651E-002   3.0622098263761229E-002   0.0000000000000000     
   4.4972713065861480E-002   3.4621558865976815E-002   0.0000000000000000     
   4.8598739001136357E-002   3.8815256775558353E-002   0.0000000000000000     
   5.2133526744179280E-002   4.3203191992505843E-002   0.0000000000000000     
   3.3897529159443697E-002   2.5725527806912455E-002   0.0000000000000000     
   3.7486413302763685E-002   2.9521576651864716E-002   0.0000000000000000     
   4.0989261830770778E-002   3.3527915870507685E-002   0.0000000000000000     
   4.4406074743464981E-002   3.7744545462841353E-002   0.0000000000000000     
   4.7736852040846295E-002   4.2171465428865719E-002   0.0000000000000000     
   3.0577724971231485E-002   2.4696208318505036E-002   0.0000000000000000     
   3.3942777089098000E-002   2.8496373848255669E-002   0.0000000000000000     
   3.7226266959291932E-002   3.2515905478243110E-002   0.0000000000000000     
   4.0428194581813300E-002   3.6754803208467378E-002   0.0000000000000000     
   4.3548559956662070E-002   4.1213067038928457E-002   0.0000000000000000     
   2.7487534053979207E-002   2.3728916503689326E-002   0.0000000000000000     
   3.0624540297357578E-002   2.7546489852934081E-002   0.0000000000000000     
   3.3683728451424928E-002   3.1585527689183122E-002   0.0000000000000000     
   3.6665098516181278E-002   3.5846030012436456E-002   0.0000000000000000     
   3.9568650491626611E-002   4.0327996822694070E-002   0.0000000000000000     
   2.4626956407686883E-002   2.2823652362465321E-002   0.0000000000000000     
   2.7531702927542433E-002   2.6671924665899956E-002   0.0000000000000000     
   3.0361646307169792E-002   3.0736782503327703E-002   0.0000000000000000     
   3.3116786546568945E-002   3.5018225874748565E-002   0.0000000000000000     
   3.5797123645739906E-002   3.9516254780162553E-002   0.0000000000000000     
   5.2133526744179280E-002   4.3203191992505843E-002   0.0000000000000000     
   5.5574191624642624E-002   4.7791211436630315E-002   0.0000000000000000     
   5.8917848972178756E-002   5.2585162027742792E-002   0.0000000000000000     
   6.2164498786787689E-002   5.7585043765843280E-002   0.0000000000000000     
   6.5314141068469389E-002   6.2790856650931787E-002   0.0000000000000000     
   4.7736852040846295E-002   4.2171465428865719E-002   0.0000000000000000     
   5.0977811160529782E-002   4.6802989453025218E-002   0.0000000000000000     
   5.4125169540130538E-002   5.1633431219764277E-002   0.0000000000000000     
   5.7178927179648523E-002   5.6662790729082903E-002   0.0000000000000000     
   6.0139084079083777E-002   6.1891067980981075E-002   0.0000000000000000     
   4.3548559956662070E-002   4.1213067038928457E-002   0.0000000000000000     
   4.6583746672502660E-002   4.5878521751602105E-002   0.0000000000000000     
   4.9530138317999461E-002   5.0738992128464055E-002   0.0000000000000000     
   5.2387734893152446E-002   5.5794478169514328E-002   0.0000000000000000     
   5.5156536397961642E-002   6.1044979874752915E-002   0.0000000000000000     
   3.9568650491626611E-002   4.0327996822694070E-002   0.0000000000000000     
   4.2391998160561252E-002   4.5017808332360972E-002   0.0000000000000000     
   4.5132755305785519E-002   4.9901844753842135E-002   0.0000000000000000     
   4.7790921927299446E-002   5.4980106087137583E-002   0.0000000000000000     
   5.0366498025102999E-002   6.0252592332247286E-002   0.0000000000000000     
   3.5797123645739906E-002   3.9516254780162553E-002   0.0000000000000000     
   3.8402565624705551E-002   4.4220849195301809E-002   0.0000000000000000     
   4.0933020503488751E-002   4.9121989095898502E-002   0.0000000000000000     
   4.3388488282089514E-002   5.4219674481952640E-002   0.0000000000000000     
   4.5768968960507833E-002   5.9513905353464208E-002   0.0000000000000000     
   6.5314141068469389E-002   6.2790856650931787E-002   0.0000000000000000     
   6.8369948678184939E-002   6.8187455084628090E-002   0.0000000000000000     
   7.1335094476895330E-002   7.3759693468551976E-002   0.0000000000000000     
   7.4209578464600592E-002   7.9507571802703472E-002   0.0000000000000000     
   7.6993400641300697E-002   8.5431090087082523E-002   0.0000000000000000     
   6.0139084079083777E-002   6.1891067980981075E-002   0.0000000000000000     
   6.3009857197929009E-002   6.7308425681937636E-002   0.0000000000000000     
   6.5795463495676956E-002   7.2905026538431381E-002   0.0000000000000000     
   6.8495902972327632E-002   7.8680870550462315E-002   0.0000000000000000     
   7.1111175627881038E-002   8.4635957718030452E-002   0.0000000000000000     
   5.5156536397961642E-002   6.1044979874752915E-002   0.0000000000000000     
   5.7840944544233948E-002   6.6483768346349073E-002   0.0000000000000000     
   6.0445361043776222E-002   7.2104114686472071E-002   0.0000000000000000     
   6.2969785896588512E-002   7.7906018895121901E-002   0.0000000000000000     
   6.5414219102670784E-002   8.3889480972298577E-002   0.0000000000000000     
   5.0366498025102999E-002   6.0252592332247286E-002   0.0000000000000000     
   5.2863210717099721E-002   6.5713483077862400E-002   0.0000000000000000     
   5.5284787121193113E-002   7.1356957912674046E-002   0.0000000000000000     
   5.7631227237383190E-002   7.7183016836682217E-002   0.0000000000000000     
   5.9902531065669964E-002   8.3191659849886926E-002   0.0000000000000000     
   4.5768968960507833E-002   5.9513905353464208E-002   0.0000000000000000     
   4.8076655716526334E-002   6.4997569876477632E-002   0.0000000000000000     
   5.0313741727927616E-002   7.0663556217037321E-002   0.0000000000000000     
   5.2480226994711707E-002   7.6511864375143263E-002   0.0000000000000000     
   5.4576111516878578E-002   8.2542494350795484E-002   0.0000000000000000     
   7.6993400641300697E-002   8.5431090087082523E-002   0.0000000000000000     
   7.9678559555130438E-002   9.1520169807658036E-002   0.0000000000000000     
   8.2257053754224582E-002   9.7764732450398878E-002   0.0000000000000000     
   8.4728883238583103E-002  0.10416477801530499        0.0000000000000000     
   8.7094048008206026E-002  0.11072030650237644        0.0000000000000000     
   7.1111175627881038E-002   8.4635957718030452E-002   0.0000000000000000     
   7.3633349348921698E-002   9.0758583850778521E-002   0.0000000000000000     
   7.6054492022034237E-002   9.7037044758349317E-002   0.0000000000000000     
   7.8374603647218613E-002  0.10347134044074280        0.0000000000000000     
   8.0593684224474854E-002  0.11006147089795901        0.0000000000000000     
   6.5414219102670784E-002   8.3889480972298577E-002   0.0000000000000000     
   6.7771263094322631E-002   9.0041837547538445E-002   0.0000000000000000     
   7.0033520303843688E-002   9.6350425250377819E-002   0.0000000000000000     
   7.2200990731233872E-002  0.10281524408081677        0.0000000000000000     
   7.4273674376493265E-002  0.10943629403885523        0.0000000000000000     
   5.9902531065669964E-002   8.3191659849886926E-002   0.0000000000000000     
   6.2092300791333252E-002   8.9369930897937794E-002   0.0000000000000000     
   6.4194138599652908E-002   9.5704873926484413E-002   0.0000000000000000     
   6.6208044490628878E-002  0.10219648893552685        0.0000000000000000     
   6.8134018464261259E-002  0.10884477592506504        0.0000000000000000     
   5.4576111516878578E-002   8.2542494350795484E-002   0.0000000000000000     
   5.6596462439953539E-002   8.8742863901976554E-002   0.0000000000000000     
   5.8536346909461898E-002   9.5100390786669112E-002   0.0000000000000000     
   6.0395764925403668E-002  0.10161507500487309        0.0000000000000000     
   6.2174716487778829E-002  0.10828691655658852        0.0000000000000000     
   8.7094048008206026E-002  0.11072030650237644        0.0000000000000000     
   8.9367991713235867E-002  0.11743010473225965        0.0000000000000000     
   9.1566158003815137E-002  0.12429295952560111        0.0000000000000000     
   9.3688546879943865E-002  0.13130887088240084        0.0000000000000000     
   9.5735158341622023E-002  0.13847783880265885        0.0000000000000000     
   8.0593684224474854E-002  0.11006147089795901        0.0000000000000000     
   8.2726220320548979E-002  0.11680107744775307        0.0000000000000000     
   8.4786698502187077E-002  0.12368380140788013        0.0000000000000000     
   8.6775118769389106E-002  0.13070964277834021        0.0000000000000000     
   8.8691481122155136E-002  0.13787860155913328        0.0000000000000000     
   7.4273674376493265E-002  0.10943629403885523        0.0000000000000000     
   7.6264574755501857E-002  0.11620327540754279        0.0000000000000000     
   7.8186695384139721E-002  0.12310588846992901        0.0000000000000000     
   8.0040036262406869E-002  0.13014413322601392        0.0000000000000000     
   8.1824597390303289E-002  0.13731800967579749        0.0000000000000000     
   6.8134018464261259E-002  0.10884477592506504        0.0000000000000000     
   6.9983055018094473E-002  0.11563669861162877        0.0000000000000000     
   7.1766148649673095E-002  0.12255922071174777        0.0000000000000000     
   7.3483299358997139E-002  0.12961234222542201        0.0000000000000000     
   7.5134507146066523E-002  0.13679606315265150        0.0000000000000000     
   6.2174716487778829E-002  0.10828691655658852        0.0000000000000000     
   6.3881661108326840E-002  0.11510134706001107        0.0000000000000000     
   6.5525058298787187E-002  0.12204379813333638        0.0000000000000000     
   6.7104908059159835E-002  0.12911426977656443        0.0000000000000000     
   6.8621210389444812E-002  0.13631276198969530        0.0000000000000000     
   9.5735158341622023E-002  0.13847783880265885        0.0000000000000000     
   9.7679737383576923E-002  0.14574106498629874        0.0000000000000000     
   9.9496029000535807E-002  0.15303975113324420        0.0000000000000000     
  0.10118403319249869       0.16037389724349521        0.0000000000000000     
  0.10274374995946557       0.16774350331705176        0.0000000000000000     
   8.8691481122155136E-002  0.13787860155913328        0.0000000000000000     
   9.0516733391319340E-002  0.14516242047642267        0.0000000000000000     
   9.2231823407716004E-002  0.15253284225637173        0.0000000000000000     
   9.3836751171345101E-002  0.15998986689898045        0.0000000000000000     
   9.5331516682206643E-002  0.16753349440424881        0.0000000000000000     
   8.1824597390303289E-002  0.13731800967579749        0.0000000000000000     
   8.3526774275481191E-002  0.14461917197773666        0.0000000000000000     
   8.5132962425592748E-002  0.15203927429028835        0.0000000000000000     
   8.6643161840637986E-002  0.15957831661345248        0.0000000000000000     
   8.8057372520616878E-002  0.16723629894722916        0.0000000000000000     
   7.5134507146066523E-002  0.13679606315265150        0.0000000000000000     
   7.6709860036062449E-002  0.14411131949024067        0.0000000000000000     
   7.8199446054166066E-002  0.15155904723499394        0.0000000000000000     
   7.9603265200377332E-002  0.15913924638691129        0.0000000000000000     
   8.0921317474696275E-002  0.16685191694599275        0.0000000000000000     
   6.8621210389444812E-002  0.13631276198969530        0.0000000000000000     
   7.0065990673063155E-002  0.14363886301393475        0.0000000000000000     
   7.1431274293435945E-002  0.15109216109048862        0.0000000000000000     
   7.2717061250563181E-002  0.15867265621935689        0.0000000000000000     
   7.3923351544444821E-002  0.16638034840053961        0.0000000000000000     
   0.0000000000000000        0.0000000000000000        0.0000000000000000     
   2.8801014565721129E-003   1.7448163900334189E-003   0.0000000000000000     
   5.8726684122453725E-003   3.8646170069428893E-003   0.0000000000000000     
   8.9777008670197805E-003   6.3594018507284102E-003   0.0000000000000000     
   1.2195198820895332E-002   9.2291709213899835E-003   0.0000000000000000     
   0.0000000000000000        0.0000000000000000        0.0000000000000000     
   2.6103140142635884E-003   1.5889161627537791E-003   0.0000000000000000     
   5.2897067366614349E-003   3.5566982099054572E-003   0.0000000000000000     
   8.0381781671935385E-003   5.9033461414550346E-003   0.0000000000000000     
   1.0855728305859900E-002   8.6288599574025088E-003   0.0000000000000000     
   0.0000000000000000        0.0000000000000000        0.0000000000000000     
   2.3400875959511281E-003   1.4589551150055757E-003   0.0000000000000000     
   4.7201673185895791E-003   3.2998192513025914E-003   0.0000000000000000     
   7.1402391679153514E-003   5.5225924088910493E-003   0.0000000000000000     
   9.6003031439284466E-003   8.1272745877709451E-003   0.0000000000000000     
   0.0000000000000000        0.0000000000000000        0.0000000000000000     
   2.0694222016347337E-003   1.3549332467888086E-003   0.0000000000000000     
   4.1640501580298070E-003   3.0939801311342927E-003   0.0000000000000000     
   6.2838838691852200E-003   5.2171406530364534E-003   0.0000000000000000     
   8.4289233351009726E-003   7.7244148124952887E-003   0.0000000000000000     
   0.0000000000000000        0.0000000000000000        0.0000000000000000     
   1.7983178313144034E-003   1.2768505581034774E-003   0.0000000000000000     
   3.6213552549821172E-003   2.9391808494005603E-003   0.0000000000000000     
   5.4691122710031417E-003   4.9869908738912486E-003   0.0000000000000000     
   7.3415888793774767E-003   7.4202806315755432E-003   0.0000000000000000     
   1.2195198820895332E-002   9.2291709213899835E-003   0.0000000000000000     
   1.5427481697639401E-002   1.2371771899531892E-002   0.0000000000000000     
   1.8576868921019347E-002   1.5685052465758416E-002   0.0000000000000000     
   2.1643360491035175E-002   1.9169012620069564E-002   0.0000000000000000     
   2.4626956407686883E-002   2.2823652362465321E-002   0.0000000000000000     
   1.0855728305859900E-002   8.6288599574025088E-003   0.0000000000000000     
   1.3689008990977107E-002   1.1650896313193234E-002   0.0000000000000000     
   1.6484672060861738E-002   1.4887111864272558E-002   0.0000000000000000     
   1.9242717515513798E-002   1.8337506610640479E-002   0.0000000000000000     
   2.1963145354933291E-002   2.2002080552297000E-002   0.0000000000000000     
   9.6003031439284466E-003   8.1272745877709451E-003   0.0000000000000000     
   1.2076782615594063E-002   1.1046414051344993E-002   0.0000000000000000     
   1.4546100951877392E-002   1.4212559063015905E-002   0.0000000000000000     
   1.7008258152778441E-002   1.7625709622783682E-002   0.0000000000000000     
   1.9463254218297209E-002   2.1285865730648321E-002   0.0000000000000000     
   8.4289233351009726E-003   7.7244148124952887E-003   0.0000000000000000     
   1.0590802571490268E-002   1.0558325113987171E-002   0.0000000000000000     
   1.2761155594066311E-002   1.3661394061988465E-002   0.0000000000000000     
   1.4939982402829097E-002   1.7033621656499170E-002   0.0000000000000000     
   1.7127282997778631E-002   2.0675007897519287E-002   0.0000000000000000     
   7.3415888793774767E-003   7.4202806315755432E-003   0.0000000000000000     
   9.2310688586657256E-003   1.0186629501119759E-002   0.0000000000000000     
   1.1129835987428491E-002   1.3233616861190227E-002   0.0000000000000000     
   1.3037890265665772E-002   1.6561242711786939E-002   0.0000000000000000     
   1.4955231693377570E-002   2.0169507052909895E-002   0.0000000000000000     
   2.4626956407686883E-002   2.2823652362465321E-002   0.0000000000000000     
   2.7531702927542433E-002   2.6671924665899956E-002   0.0000000000000000     